LAMMPS data file via write_data, version 2 Aug 2023, timestep = 0, units = metal

1867 atoms
3 atom types

-14.17811728929971 14.17811728929971 xlo xhi
-13.635779785743416 13.635779785743416 ylo yhi
-14.232760930091063 14.232760930091063 zlo zhi

Masses

1 55.847
2 1.008
3 1.008

Atoms # atomic

1738 1 -11.07088785058582 -12.363923994976467 -11.063357531148744 0 0 0
1739 1 -11.318638139948995 -10.12875892510313 -11.989385994033709 0 0 0
1740 1 -12.696227189178247 -11.495399927983424 -13.458454970812873 0 0 0
1746 1 -13.362807365325505 -11.701263380440889 -11.104494108871426 0 0 0
1729 1 -10.344567359056242 -12.185399745299422 -13.443264536892263 0 0 0
1623 1 -9.93727630008273 -8.512968767950284 -10.716094267407392 0 0 0
1636 1 -13.687291527510503 -9.30775221616345 -12.101358041112034 0 0 0
1634 1 -11.971975584013778 -10.022708165020688 -9.614953889381846 0 0 0
1737 1 -9.591913256238207 -10.703597083828809 -9.569417201202508 0 0 0
1730 1 -9.193182187863396 -8.491745066111996 -13.122176217443528 0 0 0
1727 1 -8.908698889831783 -10.652093874899048 -12.03241152480155 0 0 0
1736 1 -9.33641974701942 -13.035250125179623 -8.756054640367516 0 0 0
1744 1 -11.75100079377883 -12.255967883629879 -8.610659794970388 0 0 0
1818 1 -8.67084719839729 -12.981949845248893 -11.163698886439418 0 0 0
1716 1 -5.225612950987763 -9.963821375527417 -10.768387561143115 0 0 0
1808 1 -4.534239539332152 -10.062105379999014 -13.123005728505708 0 0 0
1728 1 -7.546074992950462 -9.368537868459999 -10.662857637545049 0 0 0
1718 1 -6.841254758519666 -9.181367566650845 -13.086230068878859 0 0 0
1817 1 -7.230023953716123 -11.579907614086324 -9.715421950380588 0 0 0
1815 1 -7.92386247951381 -12.81344850425525 -13.509875873927019 0 0 0
1814 1 -6.613907167455656 -11.464672957259625 -12.092794800218943 0 0 0
1806 1 -4.926284897497151 -12.28177413391532 -9.78142946696897 0 0 0
888 1 -4.167835077786458 -12.217046865474476 -12.182726287594198 0 0 1
1715 1 -3.7450249247863887 -8.421100201914255 -9.32721452066211 0 0 0
1705 1 -3.1953814061388304 -8.379556755863813 -11.763381677903453 0 0 0
1810 1 -5.413419689056482 -13.557044666274889 -13.59812778231273 0 0 0
1807 1 -2.752195876328937 -10.693087053978026 -10.924231329757419 0 0 0
1798 1 1.0672467281761229 -9.913378740520544 -9.599146151853176 0 0 0
1799 1 -0.756763787029719 -9.228910343598832 -11.957093502267726 0 0 0
1800 1 -2.051325074782543 -10.587862381334451 -13.252694152628564 0 0 0
1854 1 -1.8223169202594178 -12.811176382586147 -12.448665199914732 0 0 0
1788 1 1.8129778095419304 -9.81137479998012 -12.1020292293993 0 0 0
1852 1 0.3588899543250257 -11.128627285348117 -13.389651911858488 0 0 0
1703 1 -1.3345721400474737 -9.1896916288943 -9.629991771222679 0 0 0
1812 1 -2.4897518175770657 -12.977719540797297 -10.052802549202331 0 0 0
1851 1 -0.23837221863635172 -11.493487200348316 -10.925935420190195 0 0 0
1786 1 2.1807608905960443 -12.067882938019656 -11.232760548841181 0 0 0
1796 1 1.4674253873202776 -12.242388778037363 -8.969613118072894 0 0 0
1106 1 0.6100746998346569 -13.501436740588884 -12.65543191088369 0 1 0
1801 1 -2.341283840051293 -8.283783073448546 -14.140540222914536 0 0 0
1013 1 -0.06528286211862344 13.615853492433079 -10.103907588567427 0 0 0
1805 1 -1.1111470134869297 -11.604424095713052 -8.783828405804524 0 0 0
1848 1 2.7732738222734703 -11.932061377392886 -13.717033792676661 0 0 0
1840 1 6.490496490697378 -11.118857689791234 -12.229738674313795 0 0 0
1846 1 4.527436215426 -12.688854209792394 -11.325322964875102 0 0 0
1847 1 4.135517301373472 -10.3794560325484 -12.088764619590362 0 0 0
1866 1 5.15032552311515 -12.580715188610373 -13.828780345758927 0 0 0
1775 1 5.527016896188094 -8.988281376616246 -10.944225331942212 0 0 0
1841 1 6.217149798220941 -8.761507188268967 -13.204049093174138 0 0 0
1845 1 5.781081052736084 -11.19401241242873 -9.931919136504261 0 0 0
777 1 7.573594473644484 -13.164614048166118 -13.78218379697076 0 0 1
1785 1 3.4947972300685315 -10.444500677966694 -9.86260304993319 0 0 0
1083 1 6.842525544587183 -13.418931672159381 -11.592038748809497 0 1 0
1850 1 3.8072613213576467 -12.85185963930886 -8.79255386170567 0 0 0
1839 1 7.844729161076611 -9.574174988760667 -10.993423435042576 0 0 0
1787 1 3.1189124072814565 -8.148104455822626 -10.77190884242231 0 0 0
1092 1 6.1089844683828325 -13.432677290857802 -9.111201111323318 0 1 0
1777 1 3.854355202296478 -8.193874062906508 -13.07698348180036 0 0 0
1838 1 8.157131518666898 -11.871270040775826 -10.059850273240853 0 0 0
1829 1 10.270509073207073 -10.294411655126105 -11.02088662045573 0 0 0
1831 1 8.672599162871926 -9.521996124273805 -13.313669821938444 0 0 0
1859 1 12.741521314052644 -10.927429142439482 -11.003343355314861 0 0 0
1860 1 11.052122544370182 -10.21227212896277 -13.34292485941186 0 0 0
1863 1 10.546838134190619 -12.4903874045234 -9.948915004683988 0 0 0
1864 1 8.899347946496512 -11.728700209227547 -12.303846665750182 0 0 0
1822 1 12.335907087875448 -8.547240612505075 -12.002164271470042 0 0 0
1184 1 11.213278437036333 -12.401650115625728 -12.382375559918831 0 1 0
1828 1 11.555949241027026 -8.798072025795355 -9.590008394055314 0 0 0
1077 1 13.034639256904555 -13.118478013573801 -9.898512882312087 0 1 0
1741 1 13.357961484093014 -10.734635757024629 -13.434100295316652 -1 0 0
1745 1 13.580790790320279 -13.174628614799063 -12.347626290323424 -1 0 0
1762 1 9.201906315868904 -7.963635635124031 -9.484816074028874 0 0 0
1827 1 11.960564569911725 -10.966354146125173 -8.624149464459963 0 0 0
1837 1 9.525997797317011 -10.3343037752614 -8.692013694218094 0 0 0
1820 1 14.000858882646689 -9.346765380769371 -9.562249829221706 0 0 0
1635 1 -12.212349515260811 -7.8392784272144524 -10.691839641813926 0 0 0
927 1 -11.571341518669362 -7.833509972328295 -13.1097432314621 0 0 1
1506 1 -10.517893988430357 -3.988398902089381 -12.541938311108892 0 0 0
1516 1 -11.186253193384003 -4.121075584244707 -10.17505993917753 0 0 0
1517 1 -12.47852961793583 -5.62009244532628 -11.540576636990917 0 0 0
1624 1 -10.222352127544324 -6.185097105361647 -11.485571020560668 0 0 0
1406 1 -13.667870671596202 -3.439819472363654 -10.165519369581919 0 0 0
1518 1 -12.77800251999205 -3.3879315724060497 -12.32990646960778 0 0 0
1625 1 -14.050651760502992 -6.932116016038608 -13.073112124983654 0 0 0
1404 1 -13.201201537555244 -5.680538669576325 -9.267207065672832 0 0 0
1515 1 -10.856596981796834 -6.347876663721684 -9.163240667280247 0 0 0
852 1 -9.638017184246383 -6.288272657344887 -13.8975100643118 0 0 1
1614 1 -11.84169867721509 -5.488966689380154 -14.00862379083106 0 0 0
1504 1 -8.628782977699032 -4.780763756942706 -10.29487048113765 0 0 0
1393 1 -9.714403345654752 -2.563759787987223 -8.771396381789675 0 0 0
1505 1 -8.996066465376064 -2.470720242974421 -11.175651339549104 0 0 0
1626 1 -14.122059452716359 -4.7043126061096885 -13.816304867917133 0 0 0
1622 1 -8.623157647376837 -7.111933073970276 -9.178173638161184 0 0 0
1610 1 -6.223740141999001 -7.916966202276248 -9.209066338667611 0 0 0
1717 1 -5.495697493038254 -7.787077856423584 -11.58157465223784 0 0 0
1612 1 -7.909381033646713 -7.090851624910399 -11.622371606481343 0 0 0
1613 1 -8.069698526309967 -4.672723227045365 -12.597480076876007 0 0 0
1599 1 -3.9634000048365987 -6.274350356651048 -10.253765647088649 0 0 0
1600 1 -4.1425376471937145 -3.959792543442221 -11.238566549517554 0 0 0
1601 1 -5.694688254497898 -5.488794028119905 -12.588671811656145 0 0 0
1611 1 -6.344782615322542 -5.5411785782338985 -10.198539647397721 0 0 0
1493 1 -6.577799553051856 -3.378589679511757 -11.173884316517654 0 0 0
1602 1 -5.938368530402544 -3.156026456727375 -13.413099446626575 0 0 0
1590 1 -3.644507972984723 -3.771960465831894 -13.671469469739485 0 0 0
1706 1 -3.2379539565661855 -6.088011174801205 -12.669982022368583 0 0 0
1719 1 -7.181439260538787 -6.953829303325759 -13.923870817908393 0 0 0
1491 1 -4.97872376325434 -3.999874678422538 -8.757806484559556 0 0 0
1707 1 -4.776730886766179 -7.669832989719019 -13.965352792325469 0 0 0
1503 1 -7.343463996790127 -3.3037920188499648 -8.892080801460482 0 0 0
1797 1 0.8000011568372418 -7.62846969955397 -10.50828897062458 0 0 0
1692 1 1.532747220288833 -7.428298109730103 -12.923495431646815 0 0 0
1588 1 -1.8648946262324753 -4.704225818546487 -11.311039504574236 0 0 0
1694 1 -0.9071027279558503 -6.857788826817186 -12.81461057921113 0 0 0
1704 1 -1.6208151081394604 -7.070461660149893 -10.457494399392436 0 0 0
1683 1 1.1274141352061253 -5.0733298918795295 -13.77098722131122 0 0 0
1693 1 0.4928094166386483 -5.250510307870437 -11.461134336495254 0 0 0
1575 1 1.8615397758335455 -3.726668344507429 -10.053770105454346 0 0 0
1587 1 -0.47342105498001175 -2.9922631893274456 -9.96708549921053 0 0 0
1695 1 -1.1603287939606233 -4.415140612720009 -13.744997613927673 0 0 0
1577 1 0.19690485764740728 -3.060198539332795 -12.313231086485827 0 0 0
1691 1 2.1542328598527263 -5.964200885234728 -9.146940880613029 0 0 0
1586 1 -0.3395320763318548 -5.574129887027091 -9.058059907236853 0 0 0
1598 1 -2.4542263699816242 -4.693350753503491 -9.035456679417543 0 0 0
1682 1 2.6267152685871054 -3.672686780517445 -12.415550974734716 0 0 0
1681 1 2.821247089300556 -5.8835030289228945 -11.43217348830542 0 0 0
1668 1 6.504276098220799 -5.023925111063251 -10.393106551414782 0 0 0
1670 1 4.960025918434297 -4.329600318616809 -12.518146876993377 0 0 0
1680 1 4.183295482131598 -4.42194629727963 -10.045285984277337 0 0 0
1776 1 5.256020243530653 -6.638981877638831 -11.649425885194773 0 0 0
1765 1 7.24172925174091 -4.929756479091402 -12.628885327792176 0 0 0
1774 1 6.838684842254654 -7.378202498906834 -9.561151064577306 0 0 0
1679 1 4.429715831099582 -6.836173253120597 -9.317323286228621 0 0 0
1764 1 7.665640687495014 -7.129503816660429 -11.890758191497875 0 0 0
1669 1 6.263481745719979 -2.7454194111280454 -11.157386905012217 0 0 0
1778 1 3.701094423414279 -5.877417811717892 -13.923484481043163 0 0 0
1832 1 6.0050823041296155 -6.488341375355323 -14.026784639091762 0 0 0
1659 1 6.9729308399486705 -2.659079944225857 -13.561883460740663 0 0 0
1667 1 8.092098097312064 -3.6730952385162965 -8.955798697610668 0 0 0
1562 1 5.662374199933456 -2.944759805041741 -8.820813964820765 0 0 0
1830 1 9.965678818333963 -7.942209749972125 -11.822141801577104 0 0 0
1657 1 8.794771711627337 -3.5336042041230122 -11.276925823615706 0 0 0
1752 1 11.41446480336662 -6.5359171879348015 -10.534098048508596 0 0 0
1753 1 11.141718864516239 -4.136877560266534 -11.512301009877529 0 0 0
1754 1 9.665908806889934 -5.506170785878339 -12.800381655472696 0 0 0
1755 1 9.34360963273166 -3.2882182870146153 -13.609929326334832 0 0 0
1763 1 8.92608276431623 -5.773031718674932 -10.545903665603205 0 0 0
1823 1 11.967912445256058 -6.232003643442029 -12.93945282146971 0 0 0
1751 1 12.745789135932867 -4.925657827617876 -9.19291445420827 0 0 0
1749 1 11.780433306578406 -3.9974709134981534 -13.806655177075399 0 0 0
1655 1 10.361302665895273 -4.486195705606793 -9.04790316099207 0 0 0
1747 1 13.502432792488978 -4.9092597242318 -11.499669815102367 0 0 0
1647 1 12.558993712986709 -2.6422931691914577 -10.05958883682109 0 0 0
1748 1 13.248143851117852 -2.54218667950253 -12.371703170228876 0 0 0
1821 1 13.677754293631278 -7.207235091888642 -10.67949914134547 0 0 0
1824 1 8.344242358779304 -7.047470493708775 -14.18130537345496 0 0 0
835 1 -10.699623087809561 -1.6929365919494899 -13.452555569386517 0 0 1
1395 1 -11.451135584750194 -1.8858243774547478 -11.079969143089855 0 0 0
1507 1 -13.119303250503275 -0.9509040767956272 -13.421582309067649 0 0 0
1396 1 -11.612070997897815 0.3874149129039264 -12.12952465633962 0 0 0
1271 1 -10.314587289309227 1.9242852065433773 -10.751876389753296 0 0 0
1385 1 -9.509095222234002 2.1834177487999202 -12.97671972117141 0 0 0
1283 1 -12.34288677176947 0.45337145981122795 -9.63222814623282 0 0 0
1394 1 -9.980092104573359 -0.43703433331021735 -9.728909226560258 0 0 0
1384 1 -9.2609332474111 -0.1604694216935183 -12.003285899572179 0 0 0
1164 1 -12.560592529718631 2.7690880691547406 -10.402836208956728 0 0 0
1397 1 -13.764460629208832 -1.0613373132528992 -11.063097335742947 0 0 0
1284 1 -12.033101981617687 2.7343894164918083 -12.915004062196356 0 0 0
1285 1 -13.894581781004176 1.2644228710467722 -12.002790222876214 0 0 0
1405 1 -12.138396094632064 -1.915593451274093 -8.996261734707812 0 0 0
1495 1 -8.253351190158273 -2.398352856274963 -13.494627201014955 0 0 0
1482 1 -4.56757075508674 -1.6714004325665321 -12.203533708111923 0 0 0
1492 1 -5.245867537300182 -1.8084104063940298 -9.831374538003704 0 0 0
1494 1 -6.922794093419536 -0.9116276867917268 -12.09598637812011 0 0 0
1370 1 -5.5186092769457105 0.5090958515619519 -10.76020484327478 0 0 0
1372 1 -7.113177207129646 1.4069306049621133 -12.985873177573298 0 0 0
1383 1 -7.8633694022728395 1.245633473617751 -10.738803173597256 0 0 0
1483 1 -4.864806143718859 0.6899077562728024 -13.062525831620793 0 0 0
1382 1 -7.5947753055992395 -1.1103112427444852 -9.64865506408497 0 0 0
1369 1 -4.062952872870117 2.141581847244293 -9.40005737940088 0 0 0
1358 1 -3.3825904991249676 2.024223874698867 -11.677167811791033 0 0 0
1258 1 -6.496677016991863 2.819418875802924 -9.243081333714992 0 0 0
1371 1 -5.772337279757437 2.837682085211707 -11.623024782848194 0 0 0
1360 1 -5.0232366583838886 3.0987306684212044 -13.931187833993668 0 0 0
1481 1 -3.0488134233852566 -0.1521901995158288 -10.788872168098743 0 0 0
1480 1 -2.8263561330841895 -2.5352941192591913 -9.890549995692433 0 0 0
1589 1 -2.1709896696348387 -2.359454105546787 -12.240724377490725 0 0 0
1468 1 -0.7818396277914523 -0.6398230489279264 -10.970098544399079 0 0 0
1470 1 -2.46613846259965 0.025958635266894348 -13.050663807277648 0 0 0
1576 1 1.666941966897543 -1.4377510428500617 -10.856965577555167 0 0 0
1578 1 -0.04911393749288351 -0.6971676042579578 -13.336496613718118 0 0 0
1469 1 -0.9786101605825355 1.575718540906193 -11.866326129823161 0 0 0
1457 1 1.245154564423263 0.9593485796173784 -11.899523261446042 0 0 0
1356 1 -1.6926023005106803 1.3640717781448348 -9.516964730837135 0 0 0
1467 1 0.6627010703446992 0.7638559921534611 -9.462560825619647 0 0 0
1566 1 2.29990865791763 -1.4743592540426533 -13.359297045785421 0 0 0
1471 1 -2.718348101308049 2.3261587299218363 -14.055584366182089 0 0 0
904 1 -0.2778413708469589 1.778387353792283 -14.203821969435417 0 0 1
1344 1 0.44809722347640957 3.103933924239133 -10.41218122119288 0 0 0
1466 1 0.894185621110223 -1.6053727347014863 -8.579452476779874 0 0 0
1458 1 1.1640454815365135 3.214456260404692 -12.678803086518185 0 0 0
1456 1 2.681042338274935 2.321380821439609 -10.426064516266786 0 0 0
1671 1 4.587631784449709 -1.9855199487393573 -13.5014472747856 0 0 0
1553 1 6.026505259569902 -0.3527170693721491 -12.140389970850302 0 0 0
1563 1 5.408763635362519 -0.6768642152915874 -9.682871243402701 0 0 0
1564 1 3.8996717371920724 -2.2079741027351005 -11.01251464373297 0 0 0
1565 1 3.674439806518869 0.09160789719452822 -12.053117942682158 0 0 0
1443 1 5.169171052934786 1.74751625850182 -10.594237657025069 0 0 0
1445 1 3.5788665063726306 2.4453898563578917 -12.761531835731805 0 0 0
1455 1 3.0932040811330026 0.07800943389412573 -9.492660704949705 0 0 0
1554 1 5.875219026387331 1.873981147401004 -12.917464626956583 0 0 0
1552 1 7.485787316788727 0.9454607725451698 -10.718367402498936 0 0 0
1551 1 7.849261389179841 -1.37961119623073 -9.92805074951697 0 0 0
1574 1 3.3201228770378783 -2.2448390552246735 -8.675978428194961 0 0 0
921 1 4.467722350869856 0.34031411673406353 14.154578717850578 0 0 0
1442 1 6.547391303038857 3.1249931811833207 -9.133743268547892 0 0 0
1542 1 8.230338445972368 1.2736195570252846 -12.984283779648914 0 0 0
1658 1 8.429135615749505 -1.2185271266114626 -12.270822713394415 0 0 0
1649 1 10.984783980589299 -1.9046834424935923 -12.417199798692941 0 0 0
1540 1 9.871342788149711 0.339702320542008 -10.818012251423063 0 0 0
1645 1 12.861363372322185 -0.19410402823337236 -13.239895750923878 0 0 0
1648 1 12.163399927555623 -0.3316046374717878 -10.972309113374326 0 0 0
1656 1 10.17805169027438 -2.1260445163067043 -9.953687793713451 0 0 0
1533 1 11.88947564160037 1.9518405107465817 -11.816993201895329 0 0 0
1535 1 10.546243374915392 0.4638325883320622 -13.162481205572442 0 0 0
1539 1 11.282372485844249 1.8177507450828898 -9.391320913265538 0 0 0
1541 1 9.522189428215505 2.7891291221666386 -11.667451040922158 0 0 0
1430 1 8.86249517074027 2.58704560940566 -9.308460443792992 0 0 0
1531 1 13.62342680105488 1.0955075250920103 -9.598320084269641 0 0 0
789 1 10.220420450633462 2.790259395592603 -13.90925717663298 0 0 1
1646 1 12.571017097359324 2.16161699393329 -14.045009234185343 0 0 0
1407 1 13.81370986307795 -1.2236822869486375 -8.681164651709587 -1 0 0
1273 1 -10.603351189741444 4.219284701296363 -11.523642610195786 0 0 0
1153 1 -10.739767933529329 6.511296862388683 -12.266607980411301 0 0 0
1163 1 -11.504411189942664 6.641382583981208 -9.855280660451776 0 0 0
1274 1 -12.92568230703327 5.049832983643174 -11.386108486970414 0 0 0
1151 1 -9.145760280605968 5.848468058086965 -10.12801992041673 0 0 0
1165 1 -13.131657858197238 7.347042127241409 -12.217115528680386 0 0 0
1262 1 -9.817914992189358 4.448759996204142 -13.849186293722402 0 0 0
843 1 -12.147500436806352 5.058077002465765 -13.673494086603743 0 0 1
1152 1 -9.400607755366055 8.24266196591665 -10.854552915250878 0 0 0
1272 1 -11.220472078048966 4.334540082007315 -9.17125423840703 0 0 0
1068 1 -13.94726151475251 7.267874995036294 -9.8079972495451 0 0 0
1162 1 -13.567484500765989 5.028006623903909 -8.902555635880097 0 0 0
1270 1 -8.920761437859113 3.5574191901554 -9.25631681510633 0 0 0
1142 1 -8.66141021079461 8.271924018496875 -13.257739051119358 0 0 0
1261 1 -8.44879290326472 5.8910353143531005 -12.32053275401671 0 0 0
1260 1 -8.12857028016903 3.6496806882712285 -11.52714959936447 0 0 0
1246 1 -4.472097218951525 4.345826226046746 -10.195186866095948 0 0 0
1247 1 -4.6138005387808985 6.804044461918988 -11.158296251405424 0 0 0
1248 1 -6.085484556111497 5.193164095016339 -12.379199920611509 0 0 0
1259 1 -6.861393761391915 5.11586662018955 -10.105399730248113 0 0 0
1140 1 -7.08402828063071 7.332105847760378 -10.987969001288663 0 0 0
1249 1 -6.279346254424499 7.583032939602855 -13.465565043880822 0 0 0
1237 1 -3.9229778612274053 6.864616719248019 -13.515455318494924 0 0 0
1359 1 -3.6889353105947933 4.642543025348935 -12.589544752957663 0 0 0
1373 1 -7.364624353686675 3.7472070245484943 -13.980863061425882 0 0 0
1127 1 -3.23445442893542 8.10003653504656 -9.709535456848169 0 0 0
1138 1 -5.316100761961483 6.626289133204075 -8.89196276674773 0 0 0
1150 1 -7.746093093441986 7.2584458861706835 -8.541721782095195 0 0 0
1245 1 -2.9757020142465134 5.822915263817482 -8.79761761483197 0 0 0
1235 1 -2.202863980046157 6.026088870708772 -11.164919718174 0 0 0
1346 1 -1.282258089826648 3.8973208230711265 -12.666515904657201 0 0 0
1347 1 -1.5877617580904069 6.194637695870188 -13.579833910671798 0 0 0
1357 1 -1.9332154611302172 3.697396379167124 -10.239705964099123 0 0 0
1335 1 0.8827696496254696 5.421970983211715 -13.65901283273526 0 0 0
1345 1 0.10325287540621808 5.320519552206239 -11.183180054955734 0 0 0
1234 1 -0.8278833116284972 7.529160486491463 -9.836663842132854 0 0 0
1222 1 1.565183558367666 6.881458755505168 -9.899802417827358 0 0 0
1223 1 -0.2868722145654612 7.553256323174239 -12.122665705794525 0 0 0
1343 1 1.7594632170755329 4.61712758860542 -9.02231054042642 0 0 0
1233 1 -0.6116918106209539 5.201994274288417 -8.898668444472722 0 0 0
1334 1 2.145908863378242 7.019369390483561 -12.227497095916332 0 0 0
1224 1 -2.5185970716037183 8.3623006309622 -12.08558846389081 0 0 0
1333 1 2.58482186330259 4.627321715659761 -11.338728792551088 0 0 0
1432 1 7.150039028074449 3.2924372471374888 -11.60623073557457 0 0 0
1320 1 6.303452302093692 5.412633460711724 -9.948028623096175 0 0 0
1322 1 4.584716881725168 6.402075208939156 -12.209065804732635 0 0 0
1332 1 3.8857340772564477 6.286408104334406 -9.899029926787426 0 0 0
1444 1 4.805962606224696 4.081611339870776 -11.366888905586237 0 0 0
1446 1 3.2607791276908493 4.887595965306172 -13.637221193317645 0 0 0
1433 1 6.930730890936999 5.746094204564258 -12.353391753765683 0 0 0
1321 1 5.916662789285631 7.915846549992107 -10.821773748344667 0 0 0
1311 1 6.641034847763272 7.929148465461651 -13.220302466306547 0 0 0
1331 1 4.139806024935094 3.8665765721343774 -9.051786081227705 0 0 0
1434 1 5.6030853966885665 4.209716163445449 -13.706627508681413 0 0 0
1211 1 3.519906316364434 8.330762610258237 -10.751279921083626 0 0 0
1543 1 7.896897701130108 3.530625454325815 -13.896751248315567 0 0 0
1323 1 4.2740104142059 8.692452179864752 -13.123969920633318 0 0 0
1319 1 7.628387029022942 7.075382165711428 -8.666166410515359 0 0 0
1209 1 5.28759000009407 7.6723126324186275 -8.458243049240583 0 0 0
1309 1 8.334124605678713 7.112364195274274 -10.987591950437533 0 0 0
1417 1 11.28503810920919 6.593611818269444 -13.434066512883007 0 0 0
1420 1 11.00656121598654 4.090633922849282 -10.34886369731953 0 0 0
1421 1 10.63285340517631 6.516098294168607 -10.953407445386645 0 0 0
1422 1 9.299336052266547 4.9921770332019015 -12.476685479015964 0 0 0
1431 1 8.737340460276684 4.859148014466712 -10.194723418364184 0 0 0
1534 1 11.769374150377786 4.317596153363613 -12.67865745336413 0 0 0
1299 1 12.165986295427274 7.8390696331786245 -9.707174629706907 0 0 0
1415 1 13.130328762606222 5.747801514969634 -11.245862263888904 0 0 0
1416 1 12.671744279778931 8.177046169636643 -12.14561171086446 0 0 0
1423 1 8.988338668183523 7.308811789535419 -13.379418251327579 0 0 0
1532 1 13.437838641781799 3.377675148361078 -10.431695334063692 0 0 0
1419 1 12.468226018231384 5.671856531051805 -8.842412190534262 0 0 0
1307 1 9.989123167708616 6.3108831225090505 -8.624028915090651 0 0 0
1308 1 9.844283653256287 8.53330750354817 -9.624733125575611 0 0 0
1166 1 13.721223646096835 5.734637108774599 -13.61790064623017 -1 0 0
1286 1 14.058490815633881 3.5712380897164664 -12.642001475739004 -1 0 0
1154 1 -11.754976674994264 8.864845814718336 -10.804916023836018 0 0 0
986 1 -12.35470076304478 13.374054794202891 -12.478447256151366 0 0 0
946 1 -12.945811324793041 13.387710642171001 -10.103674430217172 0 0 0
845 1 -10.944295701464998 8.879469830167036 -13.149238313361872 0 0 1
1819 1 -9.982997122355439 12.764199708058428 -12.60511358676999 0 -1 0
933 1 -13.388278765622061 9.801856711054818 -13.107823600528121 0 0 1
975 1 -10.76747092712644 12.50589902066114 -10.14836764240862 0 0 0
985 1 -12.707513765657398 11.013556215599465 -9.332863254289983 0 0 0
1056 1 -10.350744363105344 10.27260028554937 -9.270571930488474 0 0 0
1058 1 -12.051802549132024 11.144407539671555 -11.696679658867286 0 0 0
1046 1 -9.685424000332905 10.418380180798302 -11.757237869415377 0 0 0
815 1 -13.740958245684297 12.073233232372981 -13.953727773985447 1 0 1
1047 1 -11.37920888817714 11.310837411577122 -14.035719151391453 0 0 0
1069 1 -14.095655004567956 9.516390421283567 -10.7780466725101 0 0 0
1034 1 -6.2395298880048955 13.546101374960163 -11.216424773551264 0 0 0
1139 1 -5.682044520069962 8.90958496395998 -9.625459053669609 0 0 0
966 1 -6.959443014036787 13.44214758889715 -8.898402380886669 0 0 0
1045 1 -8.280055528337723 12.050410278398182 -10.386536160563336 0 0 0
1236 1 -4.940900236001827 9.030085371161853 -12.036040462406474 0 0 0
1813 1 -3.768938704847777 12.801092911902426 -11.403602817586837 0 -1 0
1033 1 -5.957405965642007 11.19593034782659 -10.349900378871366 0 0 0
1035 1 -7.455645419514803 12.03433684390227 -12.564084528886362 0 0 0
1044 1 -7.935823663847025 9.74004348752505 -9.479721324765855 0 0 0
1141 1 -7.3599449883168875 9.682920715418707 -11.94531276566129 0 0 0
886 1 -5.160164928324564 11.364738897860402 -12.743504279321993 0 0 1
1128 1 -3.539638418589293 10.51774122130519 -10.600820639859815 0 0 0
1023 1 -4.461747721494362 12.586651996044054 -9.083686697438987 0 0 0
1855 1 -2.994872917720741 12.819867480274745 -13.688228051145632 0 -1 0
1118 1 -2.61753023186942 10.595802501588388 -12.944888360247768 0 0 0
1022 1 -2.0425095938307543 11.971932429778612 -9.151333821154228 0 0 0
1116 1 -1.1161347713638818 9.787322491694287 -10.672617221395306 0 0 0
1117 1 -1.4139706562640022 12.019536341289474 -11.410673484329772 0 0 0
1105 1 1.1607288898134538 9.10399614308584 -10.862087598707548 0 0 0
1115 1 0.3550796106049283 11.254939773666631 -9.366422599871381 0 0 0
1225 1 -0.38313516540139503 9.90258638806446 -12.995952660656432 0 0 0
1213 1 1.809563374554969 9.25207263567086 -13.097024786220967 0 0 0
1212 1 0.9490053513802152 11.521486118057137 -11.65778106930338 0 0 0
897 1 -0.6681905755576079 12.22924556910744 -13.955945055273753 0 0 1
1104 1 2.3675850641335963 12.838858612613905 -10.27597700712441 0 0 0
908 1 1.5553441374561014 11.49772511281385 -14.03854820654848 0 0 1
1103 1 2.5844360387540277 10.559754026064397 -9.492932067345237 0 0 0
1093 1 4.8805401484940525 12.30557613235111 -10.385779690155761 0 0 0
1094 1 3.0248275393073065 13.10601101633613 -12.668088512154522 0 0 0
1200 1 5.653866532781731 10.151570091535604 -11.7622849472662 0 0 0
1210 1 4.969345729247916 9.931244727321626 -9.538172547545297 0 0 0
1198 1 7.414975351233135 9.411513977179503 -9.516363355224893 0 0 0
1199 1 7.131025476974948 11.64124937407355 -10.461598852129642 0 0 0
755 1 5.3201067034150675 12.341948671499651 -12.778818727750947 0 0 1
917 1 3.266712514391788 10.839563400042444 -11.796125930701711 0 0 1
1201 1 7.729428807002446 11.72314673468771 -12.774837085529155 0 0 0
918 1 3.967831995333121 10.903242434960845 -14.214616594054322 0 0 1
1310 1 7.974169163982335 9.363036435857712 -11.928121575245292 0 0 0
773 1 6.366543729621412 10.296663395566426 14.166800299268855 0 0 0
1301 1 10.416607660343207 8.712399462480171 -11.910296964726871 0 0 0
795 1 9.924675733807682 13.366437240290285 -13.86396106379845 0 0 1
1082 1 8.515590581178547 13.168336854988915 -9.076232896677867 0 0 0
1190 1 9.247316861523817 13.231579671269898 -11.492174748969157 0 0 0
1183 1 11.577697973822534 12.541515245196091 -11.401363906078936 0 0 0
1189 1 9.504831555393743 10.852723008273191 -10.595566163988988 0 0 0
1191 1 10.162368367480532 11.074003066119563 -12.926705434677832 0 0 0
1300 1 11.745734881436348 10.341380928031214 -10.75245459635028 0 0 0
1298 1 12.488943029171047 10.409214487385402 -13.103346388790866 0 0 0
1188 1 10.997318208017255 12.441459664914 -9.106929134692333 0 0 0
813 1 12.18850338414768 12.684880555985874 -13.940749688352849 0 0 1
1182 1 13.431013980231317 11.780606455065918 -9.151586641889665 0 0 0
791 1 8.71556954736112 9.626508908566421 -14.215442842011733 0 0 1
987 1 13.901821131259016 11.866991975867762 -11.629660582104554 -1 0 0
1858 1 -14.028953424727929 -11.633752007723208 -8.679624940497412 1 0 0
1530 1 -13.199278416907346 -10.218017261461357 -4.703878698660819 0 0 0
1632 1 -10.22777441693052 -10.982363496023751 -7.233465249889156 0 0 0
1640 1 -10.90420274712562 -10.845956675943512 -4.768408586245457 0 0 0
1641 1 -12.379619304975291 -12.4496886926641 -6.283004809280588 0 0 0
1642 1 -12.607039549934893 -10.128686613051473 -7.0602152614807885 0 0 0
1633 1 -10.60162509347412 -8.665805070149721 -8.11645411271044 0 0 0
1523 1 -11.308279935487223 -8.553559367351262 -5.819489039727079 0 0 0
1833 1 -12.836453750126804 -12.367988157633365 -3.824244657948496 1 0 0
1631 1 -9.066244153937397 -9.325046665453952 -5.787545952266429 0 0 0
1734 1 -9.893697062140832 -13.158160026268149 -6.440690757847743 0 0 0
1743 1 -10.561359331700247 -13.25389446131142 -4.058627256713244 0 0 0
1521 1 -9.681815778445106 -9.333232483813521 -3.236970749521907 0 0 0
1529 1 -12.056602613409419 -8.738189361597955 -3.228118715580882 0 0 0
1630 1 -8.613631630330783 -11.684751181142559 -4.9606611339488556 0 0 0
1714 1 -3.409031061690307 -10.777200342227333 -8.507879086758912 0 0 0
1621 1 -8.120629256551716 -9.358733696356548 -8.033096723997696 0 0 0
1726 1 -5.869843444290558 -10.153027081403266 -8.269992537685422 0 0 0
1735 1 -7.724076409244294 -11.771556179067565 -7.352682630531647 0 0 0
1619 1 -6.529263175031044 -10.162279769631162 -6.006810172324839 0 0 0
1724 1 -4.200287978096501 -10.941081140785792 -6.179074656914963 0 0 0
1725 1 -5.449395296118546 -12.580092745276895 -7.505922018427564 0 0 0
1733 1 -6.309450166685688 -12.60998237338474 -5.150780718084139 0 0 0
1608 1 -4.357059913588067 -8.548411523762146 -6.8388213823595265 0 0 0
1618 1 -5.271066522922258 -8.605701216348393 -4.599499482481843 0 0 0
1629 1 -7.276857932556163 -10.185521270295723 -3.5849765970646104 0 0 0
1617 1 -4.9229916706438 -10.934833572355192 -3.774198323711394 0 0 0
1811 1 -3.89640053452416 -13.08354594032544 -5.276961339887686 0 0 0
1032 1 -3.097648066886144 -13.164061903813387 -7.635032830481691 0 1 0
1606 1 -2.857010177984387 -9.358541193611664 -4.719627616206665 0 0 0
1711 1 -0.47043790557233045 -10.191910295900477 -4.927662895407588 0 0 0
1712 1 -1.83861338103166 -11.65112909284186 -6.344429709116036 0 0 0
1713 1 -2.0164543189948656 -9.273869587073115 -7.226459792211568 0 0 0
1699 1 2.0639211741476835 -10.841370108360776 -5.008026166849911 0 0 0
1701 1 0.3873228756176541 -10.04658221874118 -7.390784443590935 0 0 0
1804 1 0.6609553851227403 -12.282983886863075 -6.524571671710623 0 0 0
1710 1 -0.06342139657213153 -12.343332344934321 -4.01569336774811 0 0 0
1722 1 -2.478731087503302 -11.657553499379905 -3.945298604552212 0 0 0
1700 1 1.6492582379168752 -8.528256820925169 -5.9506360312039295 0 0 0
1593 1 0.9466538833769089 -8.67269067941367 -3.6659605163878464 0 0 0
1803 1 2.2358492946284656 -13.051268027433537 -4.131256272108489 0 0 0
1690 1 2.5326150184145106 -8.358542144997202 -8.317918232122514 0 0 0
1605 1 -1.4016446067555695 -7.862159226978214 -3.4168118997201162 0 0 0
1773 1 7.146712407344481 -9.649751523066703 -8.585895327782243 0 0 0
1795 1 2.8070981009464013 -10.779163246007917 -7.324678777353902 0 0 0
1677 1 4.9077570994988555 -9.037151739065362 -8.530649766743585 0 0 0
1782 1 6.824311588502219 -12.115159457840827 -5.215552932876513 0 0 0
1783 1 6.598582867401692 -9.895967252544233 -6.086410171819297 0 0 0