LAMMPS data file via write_data, version 29 Sep 2021, timestep = 0

1870 atoms
3 atom types

-13.86703100974401 13.86703100974401 xlo xhi
-14.216442425363384 14.216442425363384 ylo yhi
-13.948856280252365 13.948856280252365 zlo zhi

Masses

1 55.847
2 1.008
3 1.008

Atoms # atomic

76 1 -10.932240417909517 -11.934321065054853 -11.728865867562726 0 0 0
89 1 -12.644201792860004 -11.935219269573807 -13.523845387444897 0 0 0
122 1 -13.388991742909798 -12.22712717385842 -10.990268669735256 0 0 0
1495 1 -12.723792347983935 -14.123090585549443 -12.453576345377687 1 1 0
485 1 -10.54744341513059 -13.854233597817753 -13.07443509794389 0 1 0
224 1 -9.848503433818784 -14.099783994665263 -8.377461633202227 0 0 0
190 1 -8.742949562552054 -11.654341843988206 -12.525447903745958 0 0 0
204 1 -8.983658046549605 -13.783673507637785 -11.00012578699164 0 0 0
359 1 -8.022262683968194 -13.642640584035219 -13.804941394121828 0 0 1
185 1 -4.288151389427984 -13.453020477527568 -12.560031511618043 0 0 0
205 1 -6.64790276471605 -13.752523290503081 -11.926807801288096 0 0 0
207 1 -4.929714796170204 -11.68848063980678 -11.179994429053814 0 0 0
238 1 -6.319931347908408 -11.5008304797506 -13.080782667947364 0 0 1
186 1 -1.8397913151097907 -13.315610164301589 -13.292735836538972 0 0 0
184 1 -0.39067629839809115 -13.330272051195982 -11.32155099148293 0 0 0
199 1 -2.7794170510725973 -13.516856582925515 -10.651612066240885 0 0 0
91 1 -13.281183556188639 -10.051024147069278 -12.186530835870906 0 0 0
78 1 -10.857190208417649 -9.894879420368108 -13.011624087626075 0 0 0
55 1 -8.261377897528815 -9.587385255541435 -13.861419493814374 0 0 0
79 1 -9.391699550253728 -9.883215956210838 -11.050842311765976 0 0 0
80 1 -6.906760843408946 -9.496286721071446 -11.814785784473257 0 0 0
192 1 -4.554594523365264 -9.543014408814006 -12.416288135633067 0 0 0
347 1 -12.926962469853237 -6.703981349449686 -0.10165426393457899 0 0 0
187 1 -2.4538121553263217 -11.441223857293036 -11.939526667286733 0 0 0
193 1 -2.29333519728703 -9.259662066637514 -13.129490802091366 0 0 0
189 1 -0.6657014262657484 -9.324104484857623 -11.247138184332142 0 0 0
209 1 -3.085492866463291 -9.449808835158322 -10.512356578838807 0 0 0
9 1 -8.244291981016376 -13.87096550211163 -6.510576714506062 0 0 0
63 1 -12.92963847642928 -7.869085357496724 -13.357631448022806 0 0 0
100 1 -13.495982764482097 -6.053219814153705 -12.09164944505426 0 0 0
92 1 -11.379706887943145 -7.864349931618012 -11.464163687084426 0 0 0
102 1 -11.081518096921014 -5.813093404292587 -12.885610173658106 0 0 0
90 1 -13.793189210588444 -8.140990948565896 -10.754938945404799 0 0 0
93 1 -8.93840942374543 -7.830633710070148 -12.192442492572333 0 0 0
94 1 -9.718502545076593 -5.804320797314924 -10.743965194782094 0 0 0
56 1 -6.756159026129551 -7.499720039962018 -13.04431203163168 0 0 0
82 1 -5.252631112023572 -7.669819610199103 -11.033978372183013 0 0 0
57 1 -4.375390671229873 -7.422282629164691 -13.593912691631013 0 0 0
194 1 -2.7644881132461325 -7.340167373849431 -11.726370770708051 0 0 0
195 1 -0.5047580798840166 -7.236739880221477 -12.55994442403044 0 0 0
70 1 -13.213284793718291 -3.9236922670191703 -13.288336040234954 0 0 0
103 1 -11.697273002829162 -4.044402321425915 -11.390071336843993 0 0 0
177 1 -9.116214705598034 -14.180529207917528 -3.720912776178272 0 0 0
64 1 -8.681173659386879 -5.619677457399096 -13.452149890015832 0 0 0
95 1 -7.315456685931327 -5.612336672750168 -11.506671281850299 0 0 0
104 1 -9.412491065249645 -3.787341914065058 -12.083445848450582 0 0 0
66 1 -6.948466108083393 -3.4279181122161937 -12.674043839440806 0 0 0
58 1 -4.945969519576659 -5.361582901280853 -12.143586500192947 0 0 0
67 1 -4.720227207037029 -3.2827801224275017 -13.424621054312892 0 0 0
97 1 -5.558411532593194 -3.561891562123302 -10.720143869190755 0 0 0
60 1 -3.1818587178697957 -3.414305645599521 -11.469044814979524 0 0 0
59 1 -2.6140165015997887 -5.209760546540126 -13.069318081316714 0 0 0
183 1 -0.9480508833160588 -2.9915076751972496 -12.289355428716428 0 0 0
196 1 -1.176432144353324 -5.265078897058322 -11.112266581835524 0 0 0
1175 1 -0.331224883681708 -5.202440199399584 -13.807060676869442 0 0 1
108 1 -11.442648849544677 -1.7426122935655535 -12.578656315607418 0 0 0
72 1 -9.08029127331797 -1.585882632357011 -13.26526449677179 0 0 0
106 1 -7.70591817495576 -1.6058957647687055 -11.374726317130644 0 0 0
105 1 -9.913679539102997 -1.8548917950717083 -10.72433553983068 0 0 0
68 1 -5.284061533137807 -1.4256312119529273 -12.00429955296637 0 0 0
69 1 -2.875594246177384 -1.0375665131279082 -12.783011350432071 0 0 0
52 1 -0.5770500997801875 -0.8821441779043493 -13.491591690933948 0 0 0
62 1 -1.386847085990901 -1.2264089980184174 -10.779811227542591 0 0 0
109 1 -12.00894673615812 -12.140781324864376 -9.072628034785037 0 0 0
206 1 -7.231765141526775 -11.715431681047132 -10.515178929061197 0 0 0
225 1 -7.4777734737979396 -13.856294097501523 -9.150508867112114 0 0 0
111 1 -9.590505492832614 -11.8674825751615 -9.59891040595926 0 0 0
226 1 -7.91014542607148 -11.953139658250606 -7.785043069151023 0 0 0
343 1 -8.75663330354551 -4.317242908794425 -0.05903589211416538 0 0 0
198 1 -5.067986648098179 -13.613712572920754 -9.82532580577223 0 0 0
227 1 -5.670181876866357 -11.775626231251634 -8.57556016316735 0 0 0
218 1 -3.4182412461471934 -13.643764652659112 -7.94969638139337 0 0 0
197 1 -1.1872823074724401 -13.601020656105621 -8.625122986516882 0 0 0
200 1 -3.3508289156303857 -11.576478525469174 -9.295129000291762 0 0 0
201 1 -1.029950271114929 -11.41902236523582 -9.923466910694819 0 0 0
220 1 -1.7777609890179953 -11.637249246562604 -7.179669299862727 0 0 0
107 1 -13.788152934556004 -1.9209514262827678 -11.901535072208983 0 0 0
77 1 -11.684772718702169 -10.021453383489701 -10.295846068677593 0 0 0
110 1 -12.552128518777067 -10.209922697099564 -7.504992246397806 0 0 0
113 1 -7.856665960748475 -9.79742274394999 -8.925605665865557 0 0 0
112 1 -10.241756330134873 -9.955414761337636 -8.158807985251963 0 0 0
208 1 -5.522598018583917 -9.728336707931014 -9.780008995719491 0 0 0
229 1 -3.8638314467995585 -9.73879160962495 -7.761518998115681 0 0 0
202 1 -1.603258856201439 -9.548452412037113 -8.603782705562153 0 0 0
123 1 -12.244125489494092 -8.129909464036256 -8.886478556667047 0 0 0
132 1 -12.130757480017634 -5.987634643704675 -10.042372250832916 0 0 0
124 1 -12.93710270425508 -6.283196334150369 -7.341162727934304 0 0 0
126 1 -10.568629986425925 -6.089756581590532 -8.112615303666708 0 0 0
81 1 -7.499395672595978 -7.676049000464468 -10.236552294393114 0 0 0
125 1 -9.858645884470711 -7.953846496058354 -9.553954856589751 0 0 0
114 1 -8.302087586466296 -7.924960908477985 -7.409669642988892 0 0 0
127 1 -8.152972141662035 -5.862605959293919 -8.72314469656246 0 0 0
115 1 -5.946639746526131 -7.75383840338409 -8.292398474888081 0 0 0
210 1 -3.6968143049651587 -7.670656652207262 -9.122323819412903 0 0 0
211 1 -1.205072171868661 -7.41822112922485 -9.817389340878904 0 0 0
234 1 -2.0894224263144086 -7.625450159218765 -7.112811637542665 0 0 0
133 1 -12.65381443433271 -4.1804967215264455 -8.664681400701333 0 0 0
134 1 -10.225303582392376 -3.9597960065193973 -9.253403492077403 0 0 0
96 1 -7.912688896623131 -3.724926291852805 -10.051637715585466 0 0 0
128 1 -8.605411967574195 -3.9014139281384868 -7.4173065052669624 0 0 0
117 1 -4.196577685947252 -5.67370005434112 -7.641250962865839 0 0 0
83 1 -5.762674802403717 -5.720047171258887 -9.52758749097324 0 0 0
85 1 -3.960053641465519 -3.613138360949325 -8.826072994559413 0 0 0
129 1 -6.302296680168172 -3.73409050771388 -8.124016415203627 0 0 0
84 1 -3.4626090122338695 -5.53670524275959 -10.300354469450111 0 0 0
212 1 -1.937928705934823 -5.546946349622917 -8.432753549578802 0 0 0
86 1 -1.6662845645270181 -3.294714612772113 -9.550566918788448 0 0 0
213 1 -0.12149288643725953 -3.382690579109372 -7.619902231911171 0 0 0
137 1 -12.220885053233303 -2.0105746394802857 -9.934079152007897 0 0 0
166 1 -13.208662923391596 -2.1881657635550447 -7.273631233959418 0 0 0
135 1 -10.784096678245914 -1.9314984514575517 -8.00384481913909 0 0 0
180 1 -5.179131350268959 -14.045553844984571 -2.4973092671213912 0 0 0
136 1 -8.480041651840965 -1.8365697242483368 -8.691747178424006 0 0 0
98 1 -6.131517433913727 -1.5625938790847353 -9.431051603182809 0 0 0
99 1 -3.7148743947955616 -1.421454236877775 -10.130828739902858 0 0 0
131 1 -4.460484102871343 -1.5342269148983458 -7.418627455270026 0 0 0
87 1 -2.20043038917985 -1.3755954701645798 -8.173857894590885 0 0 0
139 1 -10.34367805234487 -12.20430460401835 -7.143923206325882 0 0 0
671 1 -12.808460485020799 -12.333305978853161 -6.346183684872491 0 1 0
50 1 -11.09860827073736 -12.283206177902008 -4.368686900015071 0 0 0
1064 1 -13.460629197213196 -12.517153760563232 -3.5469665536160573 1 0 0
48 1 -8.78787951310284 -12.111429041646248 -5.02878221717741 0 0 0
167 1 -13.68312131681507 -0.23343350931978968 -5.86573556006846 0 0 0
20 1 -10.058909458153977 -2.248914213900969 -3.3619654106382715 0 0 0
217 1 -5.752940078564498 -13.891778536737023 -7.210974754467701 0 0 0
219 1 -4.151056652877136 -11.832081954358912 -6.591361627274127 0 0 0
8 1 -6.476485311245507 -12.018301109346632 -5.79328716899248 0 0 0
33 1 -4.430799248790665 -13.909821271547795 -5.184604792900812 0 0 0
32 1 -5.036022723218968 -12.091709453299242 -3.7502649457309314 0 0 0
216 1 -0.2779973036761625 -11.501976727837587 -5.110153932582374 0 0 0
214 1 -2.022161075485025 -13.643992405736041 -5.773807523661553 0 0 0
54 1 -0.4855971148470619 -13.779707472914057 -3.7861505632565677 0 0 0
31 1 -2.652112060860871 -11.872634219574007 -4.457111051443006 0 0 0
140 1 -10.97376362244919 -10.284351010928617 -5.683016740265131 0 0 0
138 1 -13.321043182056021 -10.46051102456789 -4.828603581247396 0 0 0
141 1 -8.54050934862429 -9.980820063675301 -6.111932328777617 0 0 0
7 1 -7.011520911838188 -10.21755261502906 -4.249967741116935 0 0 0
47 1 -9.380419648617021 -10.191644727375692 -3.574204478374279 0 0 0
228 1 -6.186486189686574 -9.760171715043827 -7.020278028121842 0 0 0
6 1 -4.698972135111388 -9.841059913889906 -5.028159497504026 0 0 0
221 1 -2.4079642061581534 -9.63184612576452 -5.819109891404471 0 0 0
29 1 -0.9488935285656854 -9.665647238402874 -3.864807666413574 0 0 0
148 1 -3.736380111214549 -1.9729103678652873 -2.757149569146339 0 0 0
151 1 -13.558703076298482 -6.348060754403579 -4.575863572431006 0 0 0
152 1 -10.723975966092212 -8.138860981123868 -6.908135367302859 0 0 0
150 1 -13.045113661651925 -8.3413976250859 -6.063640863738 0 0 0
38 1 -11.560848214411001 -8.367335927504122 -4.336462840726929 0 0 0
153 1 -11.319397604936604 -6.208464154734756 -5.525651771571125 0 0 0
154 1 -8.975352010254156 -6.047097852535357 -6.1327406310884065 0 0 0
142 1 -9.170208444122158 -8.130255052417787 -4.809465587847027 0 0 0
144 1 -7.285519876016905 -6.0280694961984995 -4.072955466143833 0 0 0
116 1 -6.597485106996941 -5.842341873951099 -6.79270535052061 0 0 0
143 1 -6.825586586509219 -7.993286843994199 -5.506336143020761 0 0 0
230 1 -4.458654305387592 -7.798704918254128 -6.363677030467946 0 0 0
145 1 -4.973893144503627 -5.8263660296379225 -4.862243618228403 0 0 0
5 1 -5.420760987353617 -8.11692237749968 -3.587200457195669 0 0 0
4 1 -2.9945684154829593 -7.7347681912958075 -4.30403010808916 0 0 0
223 1 -0.5538659647386641 -7.634668653542445 -5.078790126042087 0 0 0
162 1 -11.06290535702233 -4.065040235516387 -6.822492582978604 0 0 0
160 1 -13.307557186532204 -4.261337909026052 -5.969658128916339 0 0 0
161 1 -11.834957594058183 -4.194423444759407 -4.04022452997588 0 0 0
156 1 -7.141045314783509 -3.9736028843805524 -5.376193036476581 0 0 0
155 1 -9.644027806453552 -4.254906217157435 -4.850955715859179 0 0 0
118 1 -4.779062044218939 -3.7191247690339164 -6.140803853941855 0 0 0
146 1 -5.643815410932964 -3.889154769976024 -3.4198310841286403 0 0 0
119 1 -2.572579459266846 -3.616956424692791 -6.8737818399814605 0 0 0
233 1 -2.7591353278163258 -5.762335621243345 -5.657409303495356 0 0 0
2 1 -1.0912714742120553 -5.760451748708764 -3.7823431701295505 0 0 0
232 1 -0.3795516625050368 -5.53453549758018 -6.51676820788587 0 0 0
147 1 -3.208780053807615 -3.850301979237356 -4.23741140420643 0 0 0
231 1 -0.8051071159047236 -3.5919915389687826 -4.999992815376499 0 0 0
26 1 -6.137446522595112 -1.9687170852057196 -2.085060329310533 0 0 0
163 1 -11.677897888748955 -2.169993644199991 -5.186996103320835 0 0 0
16 1 -12.17866008510062 -0.27758213339017246 -3.7545960602203774 0 0 0
168 1 -11.338303908317211 -0.09010747574006572 -6.516818930741091 0 0 0
164 1 -9.194272893116315 -2.1470532811474445 -5.936732526760313 0 0 0
157 1 -7.623729594365024 -2.005271550375891 -4.040335742708136 0 0 0
41 1 -2.165097622544298 -1.7999183942723231 -0.8968055755224036 0 0 0
130 1 -6.904044155905837 -1.8825172537098762 -6.657244478251138 0 0 0
158 1 -5.300790328874822 -1.7940001897032136 -4.682879940666833 0 0 0
149 1 -1.531502703068865 -1.5666365475185717 -3.609859485837129 0 0 0
121 1 -0.6297125996696931 -1.4020515120058246 -6.186078426707613 0 0 0
120 1 -3.096308968036025 -1.651096085835448 -5.491432992412143 0 0 0
51 1 -12.019969173369624 -12.659746538862876 -1.565338626762287 0 0 0
175 1 -7.328435988047464 -12.097494709859088 -3.035857410712115 0 0 0
169 1 -8.209656017563972 -12.434907332117941 -0.5404861952950242 0 0 0
49 1 -9.702678044033517 -12.329011072523295 -2.3187114561408286 0 0 0
653 1 -12.852578252053174 -0.03219960651005316 -8.516238220086063 0 0 0
181 1 -5.777536073570099 -12.280016298258376 -1.0377635815733868 0 0 0
188 1 -0.1881435033766703 -11.184019437096897 -12.720180874002466 0 0 0
179 1 -3.4280326878888054 -11.99315614100335 -1.7270873377281752 0 0 0
1503 1 -1.3997377076193693 -13.989918882424105 -1.1385710383224517 0 1 0
562 1 -2.893897189955606 -13.837383593703107 -3.154920935326725 0 1 0
53 1 -1.0556983702769926 -11.832601752382056 -2.5493264721457134 0 0 0
13 1 -12.542188286593637 -10.699732865274614 -0.1472919487883786 0 0 0
40 1 -11.721491895202924 -10.366892908005124 -2.908379894356438 0 0 0
12 1 -10.248372435965795 -10.502242637791444 -0.8892666697160188 0 0 0
14 1 -7.90053404112975 -10.352471583342805 -1.691552218308102 0 0 0
449 1 -4.043417631640425 -10.157668011862484 -0.4401040853807032 0 0 0
174 1 -5.55173888370836 -10.15696917405106 -2.3403325814177443 0 0 0
30 1 -3.2405141601635368 -9.992545897126739 -3.0494548160125667 0 0 0
178 1 -1.6379845677853933 -9.922426624973204 -1.1458360423142722 0 0 0
39 1 -12.328563102356137 -8.523912503029662 -1.5455442802606 0 0 0
24 1 -12.066099737052285 -6.333294281964867 -2.649034177398919 0 0 0
35 1 -10.61261868750696 -6.491243267509096 -0.735326451009298 0 0 0
36 1 -9.768882365413294 -6.228407188840725 -3.4548886227289106 0 0 0
441 1 -8.527717989887037 -8.383838463458648 -0.16837012706567123 0 0 0
46 1 -7.686311116101968 -8.146537660839599 -2.9583463729445842 0 0 0
37 1 -9.88766620743501 -8.377020455754913 -2.1752862723502204 0 0 0
11 1 -8.132238172067526 -6.218101152391784 -1.5061047662659526 0 0 0
171 1 -4.326555992068979 -5.99703393838643 -0.27278571477030056 0 0 0
173 1 -6.239724295591532 -8.228914563752268 -0.8674596980133717 0 0 0
44 1 -5.840086276462118 -6.188253684667327 -2.179176852286842 0 0 0
172 1 -3.864363914884498 -8.097176081073242 -1.704427186681361 0 0 0
3 1 -3.5579312941029073 -5.977747873150964 -2.9356615768825165 0 0 0
28 1 -1.420740782726984 -7.867412441510721 -2.3723019004555326 0 0 0
170 1 -1.947500017441337 -5.878390257663684 -0.9972293272008788 0 0 0
23 1 -12.721087691692096 -4.5128457129641735 -1.2481413357852311 0 0 0
341 1 -4.6951145307914075 -1.9771096953186156 -0.0258793847705725 0 0 0
22 1 -10.34653785965528 -4.365000386178295 -2.0724940564739214 0 0 0
34 1 -8.006857305438501 -4.182188331876391 -2.8714863246835627 0 0 0
43 1 -6.34532393841536 -4.148507417404026 -0.8630754728481556 0 0 0
42 1 -4.028398455204416 -3.895449424650991 -1.3764133917741717 0 0 0
936 1 -0.16063700758224897 -3.792016283320086 -0.33608311466068486 0 0 0
1 1 -1.7957298787318816 -3.772274998439311 -2.3222525940370815 0 0 0
578 1 -13.063234682095965 -0.42434929045369074 -1.1611958700355967 0 0 0
21 1 -11.022953971748676 -2.3260868147945057 -0.518379320766007 0 0 0
17 1 -12.528377157491345 -2.345056322542346 -2.6342320907298618 0 0 0
19 1 -10.617310604108578 -0.4046987394783539 -1.9932531471327994 0 0 0
579 1 -6.77085896781629 -0.10767877813051996 -0.6551403073472848 0 0 0
27 1 -8.536347729559504 -2.3396939596854587 -1.3247374606119369 0 0 0
222 1 -0.037494870451102 -9.569177265371623 -6.548102045627909 0 0 0
613 1 -11.205170844048032 -14.0906954781327 -10.40355979378429 0 1 0
765 1 -3.591978199501801 -14.126703210302912 -0.2600796445940734 0 1 0
176 1 -6.728358048219706 -14.069459791676042 -4.58374668212123 0 0 0
18 1 -8.249659907214458 -0.15000748757418947 -2.65914694861368 0 0 0
165 1 -9.747169803036261 -0.11538036775005267 -4.663706379516686 0 0 0
73 1 -6.821114424880068 -1.3287198482294738 -13.920306328858302 0 0 0
354 1 -0.01288093998675599 -9.074936826158464 -13.912774578835814 0 0 1
455 1 -12.846690642811264 -12.87135663534982 1.0961455861525256 0 0 0
454 1 -11.229593707235614 -12.84072010067809 2.998888253155201 0 0 0
15 1 -10.44120975116753 -12.5685097696936 0.3863884343929467 0 0 0
452 1 -8.896530129853915 -12.623834007447211 2.258794889908277 0 0 0
450 1 -6.672702128946699 -12.452779900157928 1.6184956407160236 0 0 0
420 1 -4.272871890155349 -12.163293935704967 0.9999286456452676 0 0 0
419 1 -4.999565875795138 -12.540184737308062 3.3825401819183405 0 0 0
764 1 -2.4431804513267803 -13.086668728770928 2.3214085649078093 0 1 0
782 1 -9.212653721284692 -0.3032146721089575 0.029845154113901984 0 0 0
443 1 -10.899526296204986 -10.712284712528724 1.823095531937529 0 0 0
1372 1 -13.269291323180362 -10.89345919856246 2.678237942012064 1 0 0
467 1 -13.162229498820741 -8.821131538174676 1.3291440347433134 0 0 0
442 1 -11.612490285973497 -8.915427188537162 3.3319672906073627 0 0 0
345 1 -10.847053723603086 -8.718546058447004 0.3879048608832196 0 0 0
466 1 -8.654164889793751 -10.57279484920752 1.0406848943827658 0 0 0
459 1 -7.161737091503759 -10.560707421348129 2.922276882344775 0 0 0
332 1 -9.332160315030702 -8.550131179320699 2.3325642591655615 0 0 0
418 1 -4.61766562130704 -10.142850971458753 2.2761461580361626 0 0 0
451 1 -6.378366543782315 -10.334727597433794 0.37363857486702834 0 0 0
426 1 -0.6191929923475108 -11.49646053134741 2.858528702903598 0 0 0
428 1 -2.3711847497374006 -10.357546077423288 1.6606493097189485 0 0 0
1378 1 -13.791475816734753 -0.5807953247459476 1.6695767514373454 1 0 0
346 1 -11.419698080347061 -6.701094971651518 1.8316425575768562 0 0 0
334 1 -13.683631195193529 -6.836498738903117 2.6973892350581075 0 0 0
456 1 -0.14598512832372812 -9.861781474505989 0.7989068564285127 0 0 0
465 1 -9.00122731843122 -6.413002763033357 1.144613107437971 0 0 0
330 1 -7.494979086506808 -6.512533345125682 3.06554560425381 0 0 0
439 1 -6.893718958671542 -8.395588906517517 1.7440289171486398 0 0 0
448 1 -4.447455970840734 -8.171879003251066 0.9183054493896172 0 0 0
45 1 -6.722821976031746 -6.225633696690232 0.5456066928275458 0 0 0
438 1 -4.940318118022471 -6.3324410484448155 2.396185586698035 0 0 0
446 1 -0.6061553333654466 -7.992365389345708 2.1666886625275232 0 0 0
437 1 -2.6798362231367197 -6.25667394273535 1.6447335229001627 0 0 0
458 1 -2.9291563715951394 -8.33492319234758 2.855512348769757 0 0 0
435 1 -0.29457356719890626 -5.86697527354079 0.9097041197762792 0 0 0
447 1 -2.1773747855360064 -8.046512639997115 0.1961538431330876 0 0 0
337 1 -11.115779866910277 -4.536002849985387 0.5898498234912548 0 0 0
10 1 -13.453563609986773 -4.682796949593463 1.4819861300786563 0 0 0
324 1 -11.98377272951118 -4.719084233660183 3.432461626038563 0 0 0
342 1 -7.289382248228273 -4.465078842164479 2.0165773170577985 0 0 0
344 1 -9.631841834282337 -4.386231277190939 2.5442260551571465 0 0 0
464 1 -4.826299334270253 -4.201391487509719 1.1600301832523083 0 0 0
436 1 -3.243211977567343 -4.247801185858776 3.035159670479562 0 0 0
326 1 -0.8672531413147961 -4.066131701131605 2.3700805903265554 0 0 0
463 1 -2.4489385134165005 -3.9526276130696942 0.4831267148417169 0 0 0
338 1 -11.712031188607877 -2.5717220503342713 2.1025682830119514 0 0 0
773 1 -11.536595929531462 -0.38475255098942185 0.8181047359493121 0 0 0
348 1 -13.32901883593489 -2.449910865995953 0.09888389158271593 0 0 0
335 1 -9.399050772142374 -2.316836377861218 1.307233462705046 0 0 0
748 1 -7.636417553159763 -0.3837400271206448 2.081211039958113 0 0 0
336 1 -9.950256906131477 -0.43849662530532996 2.7947690322807297 0 0 0
320 1 -7.8049985776826665 -2.5398600348363747 3.307310106869089 0 0 0
25 1 -6.989500291783719 -2.4000958539280948 0.6394729016383209 0 0 0
242 1 -6.06000599431269 -1.093640723701835 11.260750598909084 0 0 0
328 1 -5.505279921546736 -2.4479499315170674 2.5320854084361706 0 0 0
933 1 -3.675301128968721 -0.15342295298427722 3.2386403283037843 0 0 0
749 1 -5.1670403312163735 -0.23216247834285397 1.4118641864971835 0 0 0
340 1 -3.044132123715233 -2.054978674376727 1.8425764453888505 0 0 0
462 1 -0.781896121500063 -1.9347491222804223 1.0422826989260834 0 0 0
1206 1 -0.19734057568697416 -13.091560606406729 8.974488261312665 0 0 0
1334 1 -13.530744710020675 -13.129775537087815 3.682470679575811 1 0 0
390 1 -12.03619140831813 -13.140857315540375 5.775783479900493 0 0 0
398 1 -9.549120595841973 -12.747112714121723 4.938507921768704 0 0 0
421 1 -7.31312033067311 -12.69718089307552 4.209362800263097 0 0 0
396 1 -8.053162592083634 -13.02954022134292 6.83020272694576 0 0 0
403 1 -5.801680840431063 -12.762190888023301 5.976815450325681 0 0 0
402 1 -3.0315321498197036 -13.14535375309051 4.834047407880696 0 0 0
433 1 -0.6631380192290806 -13.416441892188299 4.112290950863361 0 0 0
412 1 -11.872979854911497 -11.017470624985728 4.598123184529765 0 0 0
314 1 -12.276044553597938 -9.039883292709103 5.7894162713277915 0 0 0
410 1 -9.481376677511822 -10.619183415722988 3.7434087603455026 0 0 0
411 1 -9.993540421021981 -8.824094756966467 5.083498059914781 0 0 0
386 1 -7.807020975869662 -10.825365568791359 5.655718823511467 0 0 0
423 1 -10.157493773649726 -11.005704229036098 6.273851976457969 0 0 0
440 1 -7.721096284274442 -8.647762732643368 4.354065249052567 0 0 0
427 1 -3.9070721761634815 -11.065074420571925 6.455687947059268 0 0 0
384 1 -5.508200801766247 -10.623683062406942 4.636721575214342 0 0 0
286 1 -6.048570122877076 -8.921454498883246 6.25247542980917 0 0 0
417 1 -3.537569793248558 -8.64595165323175 5.358224212183156 0 0 0
400 1 -1.3704432171101324 -11.076474016671856 5.717657745996998 0 0 0
429 1 -3.1312438781900074 -10.883010849918008 3.985504393719058 0 0 0
416 1 -1.167566100249056 -9.214101132789768 4.334548205757056 0 0 0
1359 1 -12.084853752414254 -6.888838882529104 4.480518064595049 1 0 0
313 1 -10.610292237451306 -7.013215095504024 6.5269156814528415 0 0 0
333 1 -9.756069642402679 -6.699996603689892 3.7303591762696158 0 0 0
312 1 -8.337731269064498 -6.831181368662937 5.815790089354664 0 0 0
408 1 -5.4228059353557505 -8.463152098485756 3.6173760652608387 0 0 0
310 1 -5.942143875996485 -6.757793717959955 5.001612450083691 0 0 0
457 1 -3.635252472238884 -6.430351347719165 4.222843116524462 0 0 0
404 1 -1.3077752166489915 -6.361685830411115 3.664672361903772 0 0 0
405 1 -1.918225868599741 -6.7185158686526485 5.945812862927749 0 0 0
304 1 -12.730339672807979 -4.928699404140529 5.959276631262682 0 0 0
316 1 -10.913776390827 -2.7823510484535756 6.939550588030507 0 0 0
302 1 -10.42281471798301 -4.86750182524484 5.377481316204747 0 0 0
331 1 -8.031306244300094 -4.653090795698507 4.470695724604543 0 0 0
329 1 -5.624631046611338 -4.5047318973174235 3.8215588915424448 0 0 0
406 1 -4.027014836590036 -4.581483189918629 5.744930362754939 0 0 0
308 1 -6.485088197122521 -4.7701695115002725 6.250970268153111 0 0 0
306 1 -1.6733840090074015 -4.165041462922739 4.941330728166292 0 0 0
1188 1 -0.1667203887210409 -4.362250762496934 6.947080280557614 0 0 0
323 1 -12.44070804197321 -2.68063930026236 4.959801331011619 0 0 0
774 1 -12.171547341251177 -0.6433856250442567 3.49802795840046 0 0 0
931 1 -10.779111653571556 -0.5131250429776575 5.646141994014126 0 0 0
317 1 -13.034629893467367 -0.6320218677301508 6.380592350026625 0 0 0
321 1 -8.598616167589164 -2.8849436301621765 5.945733854342308 0 0 0
322 1 -10.174315887843022 -2.6791505988675794 4.040287963904277 0 0 0
930 1 -8.465970902453577 -0.6698319543905189 4.611479519171162 0 0 0
299 1 -6.820256120426705 -0.8044937160829431 6.551021024605216 0 0 0
319 1 -6.327674878754638 -2.7139038357339373 5.165440579074826 0 0 0
327 1 -4.044168198517685 -2.4132888465453153 4.447514014069906 0 0 0
318 1 -6.152074026694306 -0.4883681389209844 3.9227106860110332 0 0 0
934 1 -4.480376944162339 -0.5014431759471272 5.76200432119586 0 0 0
932 1 -2.09239725005472 -0.39017287685426183 5.108991837395429 0 0 0
325 1 -1.5550196199936934 -2.154548398683378 3.6981085000389697 0 0 0
296 1 -2.2820487883780256 -2.500763917399663 6.403887743883757 0 0 0
1260 1 -12.71903478019961 -13.484816116724518 8.35260023325226 1 0 0
856 1 -11.150288559284828 -13.585387895350229 10.35730014244648 0 1 0
389 1 -13.2260183249098 -11.69999645216026 9.700325759116925 0 0 0
399 1 -10.390030908521787 -13.140218003672869 7.531948300084668 0 0 0
901 1 -8.864240288153294 -13.426768120890335 9.52769384713065 0 1 0
722 1 -3.9227339341047305 -13.236692703106801 7.694823360082804 0 1 0
376 1 -6.314313361353775 -13.252338790682202 8.74475506331082 0 0 0
401 1 -1.5416610388332384 -13.145956004530664 6.9125090073481275 0 0 0
339 1 -2.963096943891925 -0.13756248968766727 0.41825941077057927 0 0 0
379 1 -2.5287057520014304 -13.09591736353571 9.829074610968188 0 0 0
388 1 -10.941292922259084 -11.414756564756168 9.026881177234522 0 0 0
413 1 -12.507392323110938 -11.158553006930237 7.100793390856982 0 0 0
290 1 -10.59925564319867 -9.172874261577833 7.725438003904536 0 0 0
1286 1 -13.0266195245527 -9.378598745799989 8.403428114277236 1 0 0
265 1 -11.421535585353617 -9.522303733911672 10.26926567373761 0 0 0
409 1 -8.396250230475399 -9.125215649268009 7.043597842945669 0 0 0
397 1 -8.565812501206729 -11.175815286410746 8.198503737724945 0 0 0
387 1 -9.14067597521284 -9.357400854476303 9.65702849283366 0 0 0
366 1 -6.952840460479181 -11.214338476176659 10.077248478208823 0 0 0
374 1 -4.462332049691803 -11.298303239881971 9.376046034811232 0 0 0
364 1 -6.702736756543051 -8.998472458322851 8.940274346356851 0 0 0
395 1 -6.127281301574997 -11.075857956597988 7.543386726388295 0 0 0
394 1 -4.388453667285599 -8.920091108191652 8.109039530534648 0 0 0
372 1 -2.168760169851069 -11.17434820474257 8.453478585376484 0 0 0
392 1 -2.0618997830695456 -8.904457513202752 7.179052324973018 0 0 0
362 1 -2.903684329298624 -9.082015807430327 9.931553215168016 0 0 0
391 1 -0.5628226222945152 -8.89942158403762 9.18449952622959 0 0 0
371 1 -0.8259647871003004 -11.070644692415586 10.431142965430478 0 0 0
291 1 -13.564990243201231 -7.471992914733628 9.790440587917281 0 0 0
1279 1 -12.859514672736973 -7.060657040199303 7.124568948508983 1 0 0
289 1 -11.290900632309599 -7.315780367851121 9.16178512249736 0 0 0
288 1 -8.894476763459206 -7.202163172873973 8.4552244908162 0 0 0
261 1 -7.35564643343867 -7.119816016143958 10.272676856530289 0 0 0
407 1 -4.118883644793248 -6.842280677925815 6.8373532030934285 0 0 0
385 1 -6.535414290890544 -6.972527798938251 7.530081028024458 0 0 0
383 1 -5.032421464641212 -7.064905601317586 9.568718100508065 0 0 0
381 1 -0.3877276766013775 -6.734177123127415 7.844265952482065 0 0 0
382 1 -2.7708390534554184 -6.959416607499488 8.75536044014381 0 0 0
301 1 -11.10312253795039 -5.179818794498276 8.01281484125148 0 0 0
280 1 -13.373995931452715 -5.270510872466536 8.628556311713584 0 0 0
303 1 -11.787459240297382 -3.2989858816802364 9.303385455026596 0 0 0
1305 1 -13.245891265649608 -2.9691940643471213 7.577697865563977 1 0 0
311 1 -8.767134568678372 -4.947585986895138 7.23129608513872 0 0 0
269 1 -9.372662179003072 -3.0077824484128275 8.6395468192669 0 0 0
287 1 -9.445583622541495 -5.203922408192065 9.785844184614039 0 0 0
276 1 -7.2023985105071056 -5.161037744967809 8.93612844344334 0 0 0
300 1 -6.978781607837089 -2.9265367695538025 7.832830936259388 0 0 0
309 1 -4.928152708601466 -4.966886115435516 8.229308750777406 0 0 0
274 1 -5.531033244931127 -2.8806790029621556 9.785238018905638 0 0 0
284 1 -3.2236208874554677 -5.047217601853378 10.26437887695488 0 0 0
282 1 -2.4662008263565696 -4.796168019648418 7.567188546623459 0 0 0
257 1 -1.1155192542170056 -4.845265636292188 9.49340107715846 0 0 0
283 1 -3.056052218397408 -2.847063655701964 9.036109000829995 0 0 0
295 1 -11.536217008259161 -0.8390928096347885 8.322383292224448 0 0 0
294 1 -9.117302711424713 -0.9713449792390119 7.345538718098222 0 0 0
270 1 -9.73250632752313 -1.0554554432227565 10.027195006876681 0 0 0
268 1 -7.564109082825039 -1.2000375499804825 9.194882837762172 0 0 0
307 1 -4.707332148946389 -2.669939647142522 7.079042349606109 0 0 0
298 1 -5.286600465977852 -0.7463791902397077 8.490250136717115 0 0 0
273 1 -3.7016649421649763 -0.8867826130220191 10.482621599483405 0 0 0
899 1 -0.48101472559989666 -0.5140053454531976 7.178935068765451 0 0 0
297 1 -2.848156831704177 -0.6076604928360663 7.782032425701303 0 0 0
272 1 -0.8095390074330009 -2.5359220956806965 8.533799218956695 0 0 0
855 1 -1.2786174277807856 -0.6470844180846811 9.765016053853696 0 0 0
1783 1 -13.514484405501323 -13.897995393713071 10.859690810792326 1 1 0
502 1 -12.038351728359991 -13.772922043358871 12.816735177607377 0 1 -1
369 1 -11.833522884920779 -11.649934444452054 11.592509748459506 0 0 0
352 1 -10.288806278144818 -11.736042721106681 13.508748048711482 0 0 0
353 1 -9.592945652521605 -13.603240572362017 12.192482198456368 0 0 0
377 1 -7.172157697642288 -13.470975315931785 11.465534482896459 0 0 0
351 1 -7.800077409893209 -11.57581100032444 12.89758150917254 0 0 0
368 1 -9.314775986808966 -11.457342586025145 10.9401468202146 0 0 0
375 1 -4.827564482573884 -13.319540491689265 10.660264964790628 0 0 0