LAMMPS data file via write_data, version 2 Aug 2023, timestep = 0, units = metal

1865 atoms
3 atom types

-14.10439839614792 14.10439839614792 xlo xhi
-13.703077055964812 13.703077055964812 ylo yhi
-14.297463781159175 14.297463781159175 zlo zhi

Masses

1 55.847
2 1.008
3 1.008

Atoms # atomic

1532 1 -11.836078880774977 -9.603883443331707 -12.351033050483524 0 0 0
1533 1 -12.329828640972293 -12.269989674361883 -11.238344642499754 0 0 0
1641 1 -12.732011538114648 -10.047311962025523 -10.173821186113127 0 0 0
1531 1 -10.181460617138104 -10.831101579862224 -11.173725506403205 0 0 0
1546 1 -9.467926355774729 -10.236907168235343 -13.564885433615096 0 0 0
1416 1 -9.578317493664434 -12.89100813134965 -12.827515827286364 0 0 0
1651 1 -10.791373173970904 -8.607515208884402 -10.147866508957637 0 0 0
915 1 -11.609450838688666 -11.814127634903588 -13.470331685482819 0 0 1
1520 1 -10.5232348467195 -13.413021910126192 -10.014960834880121 0 0 0
1522 1 -13.33078890127536 -13.399186919130331 -13.392431534640934 0 0 0
1654 1 -13.830890746651384 -8.303757203366423 -13.97947681321314 0 0 0
1629 1 -13.07725210837368 -12.513596053953737 -8.981740883947776 0 0 0
1534 1 -13.855594986698842 -10.959529910757706 -13.075249612523711 0 0 0
1545 1 -9.982709828370748 -8.189476230457686 -12.384503183834472 0 0 0
1639 1 -11.112353671364746 -11.160741564759752 -8.79651674450922 0 0 0
1415 1 -8.543623836826832 -12.030573812770704 -9.694578122824623 0 0 0
1530 1 -9.03187830663891 -9.798930598536371 -8.681322133647289 0 0 0
1544 1 -8.251867499508794 -9.344792347937693 -11.016173196048513 0 0 0
1427 1 -7.773626503575645 -11.48179857179409 -11.985976537010165 0 0 0
1321 1 -3.9902195672365437 -11.133967183776058 -10.47880383522402 0 0 0
1425 1 -6.522009653716283 -10.645762211815587 -9.63043915966535 0 0 0
1426 1 -5.984421170315068 -12.788217010442825 -10.834061583004862 0 0 0
1438 1 -5.58797829955523 -10.241609765575415 -11.879152213945785 0 0 0
1322 1 -5.199515210772599 -12.044016996984583 -13.48165903027214 0 0 0
1436 1 -4.329419004320609 -9.026418800443865 -9.60236860600093 0 0 0
1439 1 -7.169914678128531 -8.98104130363981 -13.12770641441918 0 0 0
1333 1 -3.524445318624137 -8.515149050180678 -11.96727799148359 0 0 0
1204 1 -3.464426397841768 -13.265719656882595 -11.563636198765575 0 0 0
1214 1 -3.0322267989353975 -10.84892648070249 -12.781709289748818 0 0 0
1437 1 -6.193999685810606 -7.94398954366604 -10.858631601477354 0 0 0
88 1 -2.7378664181276573 -12.945161650389423 -13.678554024520587 0 1 1
1213 1 -1.3475361901622982 -11.976035218252079 -11.601421463515297 0 0 0
1225 1 -0.8755421633668572 -9.461836532221145 -12.603092895011846 0 0 0
1103 1 0.6992660667982911 -10.515168216387075 -11.274866246432527 0 0 0
1104 1 0.3297793083374021 -13.048312347980243 -10.185121618145356 0 0 0
1332 1 -1.9207909758352404 -9.855823314798421 -10.418111868432103 0 0 0
1508 1 1.3651441628259473 -12.527413987760129 -12.295272954240964 0 1 0
1013 1 1.5303497259746575 -10.277188802824952 -13.440861324751744 0 0 0
1212 1 -0.19177553233794953 -10.976373488309898 -9.116956215685821 0 0 0
1320 1 -2.3255890073673093 -12.376588791761845 -9.24733380555894 0 0 0
1105 1 -0.6957420416829763 -11.447549916334157 -13.921839821276574 0 0 0
1223 1 1.8719579092874117 -9.481747125147095 -9.007214310819084 0 0 0
1224 1 0.10422222636113077 -8.240190423934813 -10.36023750248592 0 0 0
1102 1 2.5184692593351503 -11.76319486225357 -9.84872530989807 0 0 0
1115 1 2.6446746088018305 -9.165030881111456 -11.1891310499064 0 0 0
1117 1 3.6280831313455355 -8.65071776875693 -13.298326489825513 0 0 0
1012 1 4.993144332274641 -12.475068453293312 -11.026427037970928 0 0 0
1114 1 4.465129670421389 -10.207862311757513 -9.94911625047658 0 0 0
1116 1 3.432868437615399 -11.26198269933591 -12.173863732522639 0 0 0
1023 1 7.026641606623519 -10.964104147027188 -10.89928233712771 0 0 0
1022 1 6.519726248070979 -8.845088602713176 -9.849149499153407 0 0 0
1129 1 5.402133492631227 -9.790142368167546 -12.430675718256815 0 0 0
934 1 7.550640420331549 -13.116509907758331 -12.052629874912421 0 0 0
832 1 5.584228478268736 -12.019980915603883 -13.16721686328006 0 0 1
1025 1 7.617713147855261 -10.570891968402215 -13.210288126920478 0 0 0
1036 1 7.430552332942851 -8.45109471858801 -11.943042367983722 0 0 0
1302 1 3.501087190460412 -13.538636675058136 -13.612479366061098 0 1 0
1113 1 3.9443739327487233 -8.123141561811359 -8.973046710473763 0 0 0
1011 1 6.7797774923615695 -13.582711383320378 -9.709129753614832 0 0 0
1631 1 12.267979011096083 -12.548866029333457 -12.727502353440416 -1 0 0
960 1 9.747422471028793 -11.567618435926995 -12.403037443009202 0 0 0
933 1 11.30809368862034 -12.945281774451933 -10.52124847515551 0 0 0
938 1 11.6069002959419 -10.276161497333469 -11.730524699656952 0 0 0
959 1 8.809683158484281 -12.230660289855068 -9.717871602543426 0 0 0
967 1 10.63720960646174 -10.751206329078823 -9.481816816471174 0 0 0
968 1 9.102079481414178 -9.743615170133472 -10.904895822565214 0 0 0
978 1 9.833359861932797 -9.072206807998572 -13.32834911307938 0 0 0
936 1 12.863936934098865 -9.2421303977982 -9.289144587556189 0 0 0
937 1 13.350504394792702 -11.465641054061345 -10.382924131718578 0 0 0
827 1 11.717465371985027 -10.427226189167499 -14.131365473090781 0 0 1
941 1 13.781443706636042 -9.02225261130992 -11.622653019941865 0 0 0
1303 1 8.330366925825219 -12.705322067482909 -14.223651906513178 0 1 0
1521 1 13.999731206986437 13.63516252459021 -11.183763434765735 -1 -1 0
1640 1 -13.313294887596962 -8.006453038541395 -9.06227365526874 0 0 0
1652 1 -12.472850622326048 -7.526676232632688 -11.564903028636525 0 0 0
1664 1 -10.454398594119484 -6.122243412268647 -11.43770581512782 0 0 0
1665 1 -12.176661232502287 -4.9384522056374855 -12.798334978964593 0 0 0
1754 1 -13.024705976705267 -5.288979075660913 -10.571312711373446 0 0 0
1663 1 -11.140859691560877 -3.8281791655848405 -10.399187495683716 0 0 0
1677 1 -10.189969467319507 -3.2819959910842353 -12.560294564715864 0 0 0
1753 1 -13.622854233244958 -3.1079998689151243 -9.490143615538399 0 0 0
1558 1 -9.639185424721195 -5.471491174315615 -13.543129956834496 0 0 0
1543 1 -8.676697403007417 -7.1272817490163485 -9.962125674369215 0 0 0
1650 1 -11.42207563808532 -6.446914117707394 -9.098435129543809 0 0 0
1662 1 -9.382380706284575 -4.932612064139615 -9.040870510264632 0 0 0
1653 1 -11.446091594013577 -7.217605729289378 -14.094282629485855 0 0 0
1764 1 -12.902199238323877 -2.6187154081825703 -11.635301183091224 0 0 0
1556 1 -8.49466106310221 -4.499070038553533 -11.340362127489016 0 0 0
944 1 -13.88292275529189 -3.689117417456602 -13.960341372314765 1 0 0
1557 1 -7.908111895554232 -6.801473857263984 -12.252586015671703 0 0 0
1449 1 -4.157488882344948 -6.5347045894560285 -10.864268159743347 0 0 0
1450 1 -5.891610423214031 -5.339422350664501 -12.191044121938267 0 0 0
1555 1 -6.751009604804065 -5.8179791533298575 -9.91172731722147 0 0 0
1448 1 -4.679323845551222 -4.469411907257799 -9.83116321534682 0 0 0
1461 1 -3.798332717829984 -3.9209642871385686 -12.077143892065926 0 0 0
1568 1 -6.465837482606997 -3.1431068067451218 -11.208647831329497 0 0 0
1451 1 -5.273513004428544 -7.588929898675172 -13.097604235646651 0 0 0
1570 1 -7.546376532622376 -4.233562553320549 -13.725330238948267 0 0 0
1345 1 -3.387633303981872 -6.101273175635562 -13.223507664439698 0 0 0
1462 1 -5.485282688119792 -2.7143550469046467 -13.551789933352563 0 0 0
1554 1 -7.318391611131507 -3.6718502188208912 -8.903319266995954 0 0 0
1237 1 1.077006863963165 -7.886834332582757 -12.861780366353376 0 0 0
1459 1 -2.8048004547842584 -2.93137493749766 -9.731962713787984 0 0 0
1331 1 -2.4431683629144736 -7.700421855755819 -9.36376635345622 0 0 0
1342 1 -0.3438572237742612 -6.10598916089782 -9.259537386832376 0 0 0
1343 1 -2.098129623784269 -5.110153600131371 -10.70874201710555 0 0 0
1344 1 -1.6167060905516273 -7.203054653710075 -11.731503011123195 0 0 0
1356 1 -1.299701784752763 -4.73363719301501 -13.018939825753685 0 0 0
1236 1 0.35790844842687264 -5.829678892117111 -11.587282592454997 0 0 0
1354 1 -0.11497976850988856 -3.5797640505604065 -10.598850383875188 0 0 0
1248 1 0.7086437841046536 -3.2361862462404787 -12.92124064740603 0 0 0
1235 1 2.186571740073658 -7.039654978567774 -10.22167215908353 0 0 0
1234 1 1.4983912840875337 -4.756376000316777 -9.185183143966631 0 0 0
1249 1 1.2801457395432116 -5.351308613976501 -13.840254721299168 0 0 0
1247 1 2.3690041042342944 -4.269611176137579 -11.512266181085646 0 0 0
1226 1 -0.7539963938423817 -6.892809935906714 -13.998426039920727 0 0 0
1355 1 -1.7827657718161625 -2.4408959456636783 -12.001206902959533 0 0 0
1127 1 4.786719515765563 -7.767428321102644 -11.214395331959512 0 0 0
1128 1 3.0413045619382704 -6.441867292195964 -12.293617254933771 0 0 0
1035 1 6.82362686844221 -6.2979737017757085 -11.137400961976414 0 0 0
1037 1 5.544339562199918 -7.1401142850914585 -13.632474778791416 0 0 0
1126 1 4.272684499222988 -5.537377090472008 -10.2177316284221 0 0 0
1140 1 5.1692935133912865 -5.150658431884306 -12.497164376145024 0 0 0
1138 1 6.304949488083777 -4.10819451022137 -10.1497885655155 0 0 0
1048 1 7.0913993306023375 -3.8646713668635098 -12.385188468146428 0 0 0
1139 1 4.407909157389996 -2.969250482427382 -11.408081872948461 0 0 0
634 1 7.814945486708202 -6.096905745774203 -13.639295156857823 0 0 1
1141 1 3.462514694085643 -4.161378379660748 -13.94611305977253 0 0 0
1245 1 3.6630222157637586 -3.301456211453454 -9.066652855374281 0 0 0
1153 1 5.410018770099098 -2.515593086568325 -13.65563431968576 0 0 0
1125 1 5.9571918870555205 -6.769756389523183 -8.895649378580742 0 0 0
1046 1 8.275446185851154 -2.700375443148495 -9.886561715056454 0 0 0
976 1 11.010207593666417 -8.189594153595593 -10.617280392170176 0 0 0
1034 1 8.510839404630962 -7.390144552499298 -9.686497031754827 0 0 0
942 1 12.074888334789792 -7.8461644932838945 -12.715886466638375 0 0 0
1049 1 9.653586702359744 -4.4324284230571305 -13.091546744183882 0 0 0
1047 1 8.716136864150586 -4.879799292703606 -11.007214429996576 0 0 0
975 1 10.562221084901728 -5.984712292757478 -9.654078879474746 0 0 0
977 1 9.459178499224189 -7.005909914856208 -11.944135856309448 0 0 0
984 1 11.511342510535874 -5.6308765016010245 -11.891344760920534 0 0 0
983 1 10.784182780424628 -3.460021478513351 -10.933835642743738 0 0 0
982 1 12.631374585503954 -4.561495914467539 -9.437949146024867 0 0 0
990 1 11.646096309138853 -3.0684698720801595 -13.13719425951101 0 0 0
940 1 13.353019821595057 -6.782824623724893 -10.481792553857163 0 0 0
943 1 13.54094994418187 -4.115271147861135 -11.718536174585823 0 0 0
726 1 10.269080499502321 -6.485784218481562 -14.071085334660307 0 0 1
1666 1 -14.05920801037739 -6.343621392920203 -12.816226395626796 0 0 0
1675 1 -9.136742339374502 -2.427641726361225 -10.412076297625 0 0 0
1678 1 -11.833407440630138 -2.3984042345394876 -14.057716440984642 0 0 0
1676 1 -10.974432788574905 -1.1154607037200783 -11.562205487020538 0 0 0
1762 1 -11.700287432555394 -1.7529744301734063 -9.258170769881943 0 0 0
1763 1 -13.453370457077005 -0.45409210487146723 -10.578251625468578 0 0 0
1773 1 -11.365330826104165 0.9001291217366436 -10.46419101110747 0 0 0
1689 1 -12.645788400826333 -0.08901209217674477 -13.031037049469202 0 0 0
1774 1 -12.970678167094103 2.101314777233803 -11.92463503340929 0 0 0
1687 1 -9.290561547033686 2.285644359702326 -10.422763325682801 0 0 0
1702 1 -10.518023107994544 1.2217164664708768 -12.908930724400056 0 0 0
599 1 -9.93137654469786 -0.9480923730485351 -13.940385183507221 0 0 1
1674 1 -9.702233769288675 -0.2808583340726365 -9.101756638008041 0 0 0
1688 1 -8.672494787744382 0.004047505165926779 -11.555852150068453 0 0 0
1827 1 -13.876376526562279 1.5603821130574538 -9.544474367886252 0 0 0
511 1 -12.109630754607004 2.53166682061498 -14.211806106728925 0 0 1
1701 1 -8.44884917490063 2.77068814087475 -12.557373759380575 0 0 0
1569 1 -8.155599278026706 -2.049594628703657 -12.580280551157148 0 0 0
1582 1 -7.936931773547905 0.5382495908981841 -13.86557364348585 0 0 0
1460 1 -4.405696029736388 -1.6624076761765316 -11.061625639881212 0 0 0
1472 1 -4.107587172472959 0.8591155455762252 -12.238061679713145 0 0 0
1567 1 -7.122261177726781 -1.0764437768524981 -10.17785345173373 0 0 0
1579 1 -5.0616469547820895 0.4107859272554819 -9.980917589488637 0 0 0
1581 1 -6.134862045799938 -0.6295512791287798 -12.51613967359226 0 0 0
1473 1 -3.635222624220024 -1.2970140602551474 -13.40683514372131 0 0 0
1580 1 -6.777241518586959 1.49742034444823 -11.31715903052344 0 0 0
1594 1 -5.85790164149266 1.8184383153058636 -13.801632628734241 0 0 0
1686 1 -7.580886137325152 1.1501813696564742 -9.150491972567892 0 0 0
1578 1 -5.515805141603302 2.574311737216348 -8.936586973327195 0 0 0
1470 1 -2.914067376674316 1.7453568782342561 -9.83283231042077 0 0 0
1592 1 -4.799018461797585 2.960598268599359 -11.186984369646702 0 0 0
1566 1 -5.257739488125205 -2.2188980286391278 -8.787946415090943 0 0 0
1246 1 1.9055464150865884 -2.1492148879936774 -10.484313193851621 0 0 0
1353 1 -0.7173690931258694 -1.4605750383463292 -9.550349052988707 0 0 0
1366 1 0.22531928002080548 -1.0462795722316596 -11.739283384220293 0 0 0
1367 1 -1.5103660395864864 -0.056260505944095485 -13.18391986657113 0 0 0
1471 1 -2.4226200365194224 -0.4360815669295057 -10.9246314715463 0 0 0
1365 1 -0.3603104555359913 1.0730812899920643 -10.607300855204272 0 0 0
1483 1 -2.0753881693783924 2.199539521477446 -11.99838578426892 0 0 0
1378 1 0.5968413998446778 1.4056299251472453 -12.867685401932134 0 0 0
1364 1 1.4599997903282027 -0.17386025443042996 -9.2518064142558 0 0 0
1376 1 1.6437692110072142 2.5016014742564465 -10.653828102629177 0 0 0
1259 1 2.2522327999992218 0.2956567814780868 -11.646315630330395 0 0 0
1261 1 0.9640633588766434 -0.7288977982877292 -14.090694362642408 0 0 0
1272 1 2.754380950428123 2.854726208637981 -13.131884806239057 0 0 0
1260 1 2.774979813901597 -1.7603869901654434 -12.837724638512041 0 0 0
1151 1 6.618410134671075 -1.4179253035458412 -11.414509101344827 0 0 0
1060 1 7.4332939621841 -1.076558761553727 -13.822023203207982 0 0 0
1150 1 5.921460805463385 0.6786841777059855 -10.161552890179426 0 0 0
1152 1 4.837487577586552 -0.4528505809047605 -12.654723688417139 0 0 0
1258 1 4.057932605921854 -0.8817386193042989 -10.421850631737117 0 0 0
1164 1 6.907044608224032 0.9960145066732693 -12.391743468438445 0 0 0
1271 1 4.235602867777191 1.7078020469592214 -11.484394527008854 0 0 0
1257 1 3.231086647124174 1.3956600369730907 -9.245026490007167 0 0 0
1165 1 5.1779241434548435 1.88919086376694 -13.698773153463787 0 0 0
1269 1 5.256108675356218 2.7815152146772704 -9.188318911028205 0 0 0
1162 1 7.878944520768735 2.1449630722293715 -10.036178934937556 0 0 0
1273 1 3.1268895741270857 0.6731872431586865 -14.034961722278682 0 0 0
1137 1 5.692273407720803 -2.0703348573679285 -9.170808318850273 0 0 0
1149 1 7.600741014330859 -0.4713918175916536 -8.957977203357348 0 0 0
1059 1 9.043131374531155 -2.1390516885518878 -12.104360931998812 0 0 0
1058 1 8.618487955848286 0.0019436897503819495 -11.112047573649182 0 0 0
988 1 12.813945075818053 -1.950554374404037 -10.710279600896335 0 0 0
989 1 11.140510883883453 -0.9045710955943136 -12.08334188279572 0 0 0
1057 1 10.16410162106108 -1.2133672264939381 -9.83129020385579 0 0 0
1067 1 10.52537270262532 1.4220521298824558 -11.063562304427354 0 0 0
993 1 13.132672893517187 0.63101131837856 -12.07235794532454 0 0 0
994 1 11.353134435898719 1.8613970919539113 -13.303351171628785 0 0 0
987 1 12.25979995497058 0.16136477920958114 -9.821671156415244 0 0 0
1069 1 9.500968573900687 0.25113186668444953 -13.380184348196408 0 0 0
1068 1 8.868485669805994 2.486891053285838 -12.53042024571688 0 0 0
992 1 12.691019667537665 2.795138402640866 -10.813906296173384 0 0 0
945 1 13.686759150181024 -1.5986029295493136 -13.04579338897075 0 0 0
1056 1 9.683394833006885 1.0730095448259505 -8.734846630851067 0 0 0
1065 1 11.88823530650563 2.387762207463613 -8.681392335743128 0 0 0
996 1 13.428645200878455 3.177588128480494 -13.27976865348478 0 0 0
429 1 9.86390773114879 -1.948774347969314 14.220552278782202 0 0 0
1772 1 -11.784464215385395 3.0122011015426615 -9.410214416652762 0 0 0
1785 1 -10.988291931236034 3.4440418163752398 -11.64771137777765 0 0 0
1784 1 -11.462946251251353 5.559838037173659 -10.66000200447615 0 0 0
1786 1 -12.61771960979029 4.50799830973412 -12.941866790600686 0 0 0
1798 1 -10.707332709206058 6.141195480594156 -13.291178283839844 0 0 0
1700 1 -8.932628670614779 4.910070737530447 -11.610679958333897 0 0 0
1845 1 -13.245943851095745 6.748780814160124 -11.808098130255456 0 0 0
1796 1 -9.543343168578149 6.9992546824731114 -10.633213351219812 0 0 0
1783 1 -9.82906305719405 4.412569846399524 -9.304922920003047 0 0 0
1843 1 -12.105848911455212 7.766238992756463 -9.930491539365367 0 0 0
1797 1 -11.347186275176716 8.204621490684627 -12.068293509738364 0 0 0
1714 1 -9.958483194493422 3.815841323732581 -13.976410407684686 0 0 0
1835 1 -13.4942634095868 4.241139171279055 -10.690177082106334 0 0 0
1713 1 -8.787712694478223 7.364392913909537 -12.672330841998447 0 0 0
1799 1 -13.063474690334537 6.747677440779658 -14.148130196689092 0 0 0
1484 1 -3.8153738208574204 3.1969961967603346 -13.270147272458502 0 0 0
400 1 -8.197082967309811 5.246846538674557 -13.827271285432117 0 0 1
1591 1 -5.367466442350954 4.959624110923254 -10.137969837719943 0 0 0
1593 1 -6.3102911475285905 4.2775672709639565 -12.909288855664808 0 0 0
1604 1 -4.251555169102694 5.6745426101242415 -12.628722216110088 0 0 0
1699 1 -7.289452352485143 3.795909705022776 -10.462565249211057 0 0 0
1712 1 -6.7942847836827855 6.350828650308827 -11.598744643944555 0 0 0
1603 1 -4.950537248320961 7.956215816540894 -12.047163328377774 0 0 0
1698 1 -7.640031050749938 5.885260078775179 -9.41655841521602 0 0 0
1615 1 -6.114833324479141 6.587273548610334 -14.002017791345533 0 0 0
1602 1 -3.4647889591028598 6.647462143318943 -10.14094828112967 0 0 0
1710 1 -5.842232750239232 7.482784314519751 -9.332759727050519 0 0 0
1711 1 -7.629405270693075 8.627753171881558 -10.533497498284804 0 0 0
1590 1 -3.599318524113661 3.988657674890547 -8.822117646231156 0 0 0
1481 1 -0.9341742274065545 3.2441730247989824 -9.583256871737749 0 0 0
1482 1 -2.786804331798203 4.393498243715776 -11.184150512904214 0 0 0
1493 1 -0.888596533502561 5.887104207261462 -11.027226728256666 0 0 0
1377 1 -0.14518993310254302 3.68544262177247 -11.809711034711498 0 0 0
1389 1 0.3213813384570674 6.157910427217967 -13.065840162447206 0 0 0
1388 1 1.9738886101183706 5.109887761154042 -11.87180502940549 0 0 0
1494 1 -2.365426762824967 7.153729227969208 -12.410883877986521 0 0 0
1387 1 1.2464314593982149 7.1694680479521615 -10.920939032777564 0 0 0
1375 1 0.9746463277760036 4.6302261488556375 -9.674017785257156 0 0 0
1495 1 -1.8268874031745472 4.814496836554856 -13.51522757196992 0 0 0
1399 1 2.06976697882598 7.581389872195636 -13.227950206967733 0 0 0
1492 1 -1.2210883130867813 7.991304748496372 -10.059598630024288 0 0 0
267 1 0.7786432283921325 3.766119890418043 -13.919119582846731 0 0 1
1504 1 -0.4113124686633203 8.624098638401438 -12.565906090139514 0 0 0
1285 1 2.9039470407132644 5.37196866432997 -14.08303272244482 0 0 0
1163 1 6.30872127379112 3.300792793756994 -11.587846540096598 0 0 0
1386 1 3.0335994949602156 6.155458789280765 -9.534081816941164 0 0 0
1176 1 6.592653155687801 5.948567169267992 -12.677258804958974 0 0 0
1270 1 3.7497220266710602 4.0278305836421175 -10.575425579185138 0 0 0
1282 1 5.58929569456369 5.495528567734848 -10.36378402972058 0 0 0
1284 1 4.6095878852846415 4.271412790473885 -12.736170186293284 0 0 0
1283 1 4.110118917464094 6.637031339408086 -12.202535385416471 0 0 0
1281 1 4.986051985976799 7.584562701067625 -9.321823299158142 0 0 0
1174 1 7.696216529873267 6.8683231933605775 -10.381850930914888 0 0 0
1294 1 6.0178766602266816 8.123934781081473 -11.502634044537185 0 0 0
1161 1 7.258669266726697 4.358811067447419 -9.024470946860777 0 0 0
1177 1 7.087450628017221 3.5807941046337852 -13.828512262943658 0 0 0
1188 1 6.226177852735747 8.063978259347394 -13.868291642937242 0 0 0
1175 1 8.167287630376157 4.677158959998874 -11.377385320756119 0 0 0
1187 1 8.62933589550869 7.3963743870934415 -12.789126772332192 0 0 0
1074 1 10.150779348976814 6.029359923536411 -11.187060899023091 0 0 0
1075 1 10.936791892685891 3.8957026967099893 -12.050474495621877 0 0 0
1082 1 11.147972303918914 6.321720067080168 -13.293352305402303 0 0 0
995 1 13.208804988791732 5.377900863884399 -12.344804910992721 0 0 0
1080 1 12.262338934228685 7.415822158338639 -11.04256353893334 0 0 0
1066 1 9.813664279351164 3.5498990735042852 -9.973418461646467 0 0 0
1073 1 11.938830560481795 4.93397124544164 -9.947730183448666 0 0 0
1076 1 9.189200690756097 4.888390448695194 -13.478242820512664 0 0 0
997 1 13.007338846100888 7.831613820415779 -13.193363590511833 0 0 0
1185 1 9.653831947046386 8.281636923508295 -10.224113613096584 0 0 0
1173 1 9.415481150221114 5.711838420642302 -8.92198217450147 0 0 0
1072 1 11.378004747080857 7.1447207991095 -8.802548015563044 0 0 0
1844 1 13.433983145011142 8.588830952951362 -8.846340345794736 -1 0 0
1081 1 10.611759781141744 8.621739384500835 -12.350715483346969 0 0 0
1078 1 13.891107011682982 6.421536751365998 -9.709852818854568 0 0 0
1852 1 -13.205060291162427 9.160443332097092 -13.256108433995276 0 0 0
1806 1 -11.223963645486656 10.747016124479963 -13.393628424280873 0 0 0
1850 1 -11.893096823734847 10.441767491026269 -11.065286430128754 0 0 0
1804 1 -9.863713808567326 11.65612111520404 -10.82936134591993 0 0 0
1853 1 -11.617170094792904 12.945946267520291 -12.103438934999378 0 0 0
1795 1 -10.27791285955779 9.307521162951218 -9.663261018624603 0 0 0
1849 1 -12.561659132817585 12.508799218133461 -9.867840598600747 0 0 0
1809 1 -9.212796765948431 12.118094502400812 -13.011258012379745 0 0 0
1805 1 -9.31045676123042 9.741654584178136 -12.053958519277248 0 0 0
1851 1 -13.777733009567273 11.372266880817435 -12.338641223419044 0 0 0
1085 1 -14.090817703870735 9.112951167142565 -11.143682555709589 1 0 0
1842 1 -12.82318949221208 10.031742463886896 -8.872360164525194 0 0 0
1848 1 -10.677830841583319 11.443631912958779 -8.573801976836283 0 0 0
1428 1 -7.248508813333743 13.609428832714048 -13.020985701943783 0 -1 0
1601 1 -3.945554894808801 8.831081546070656 -9.145921852329472 0 0 0
1312 1 -4.271360853138523 13.599960855872823 -9.266379063064019 0 -1 0
1722 1 -7.014585597542983 8.878946822261998 -13.159096709588121 0 0 0
1808 1 -8.006931949230502 13.234502281340244 -10.8620036998775 0 0 0
1803 1 -8.222280551777466 10.790057334223949 -9.518700960395595 0 0 0
87 1 -4.543395854604565 12.908407427880714 -13.76504167814447 0 0 1
1614 1 -4.740809269072992 10.364467153406583 -12.875381085717203 0 0 0
1720 1 -5.681949345681444 9.918151947488063 -10.409560765467493 0 0 0
1721 1 -7.193480561216572 11.098945545011976 -11.81457116404425 0 0 0
1612 1 -3.6639541340230473 11.472993265374019 -10.228405833029335 0 0 0
1724 1 -5.362487638447211 12.535974265031939 -11.656214249624059 0 0 0
1719 1 -6.218543988070889 12.19502495184052 -9.389364465803215 0 0 0
1613 1 -2.914629492037534 9.256429840040273 -11.393632989870222 0 0 0
1723 1 -6.853198645325776 11.13799731066203 -14.222228180160299 0 0 0
1617 1 -2.66754989202388 11.728562566158804 -12.542418261814184 0 0 0
1505 1 -2.693147795846812 9.256815770685026 -13.796399575798722 0 0 0
1215 1 -0.731336565223943 13.408242362963932 -12.86532789142257 0 -1 0
1503 1 -1.0515406519809414 10.569138764786583 -11.101034760600582 0 0 0
1507 1 0.9643050671438651 12.115335084194623 -11.057249211175924 0 0 0
1509 1 -0.3879556754971656 11.044000278528234 -13.400336318714032 0 0 0
1398 1 1.5882214987375338 9.817974376485964 -12.18056002097687 0 0 0
1616 1 -1.7004078458929879 12.887381007326706 -10.372678242893636 0 0 0
1502 1 0.6215259082991178 9.565399922261623 -9.920760362541339 0 0 0
1404 1 1.5897398735086892 12.4025103995338 -13.327431186456922 0 0 0
1611 1 -2.0075287270997357 10.268161823027434 -8.977231885503347 0 0 0
1506 1 2.01957139803684 12.985992442878189 -8.774636641791425 0 0 0
1501 1 0.041623077700842614 11.579507943734889 -8.8493774307067 0 0 0
1397 1 3.3140651920118795 8.657217420783766 -10.753591501024014 0 0 0
1396 1 2.7483846876227584 10.843100959656258 -9.863665688568714 0 0 0
1295 1 4.018939189975084 9.054935202449265 -13.117689963832087 0 0 0
1402 1 3.021568175553485 13.565353168690663 -10.99219271463783 0 0 0
1293 1 5.235119747648804 10.159279851464674 -10.541303009513115 0 0 0
1301 1 5.931644403469127 10.519351670989604 -12.814986829929852 0 0 0
1403 1 3.5701745127655986 11.262832686697603 -12.409384733387869 0 0 0
1299 1 7.3182929881518906 11.57865737078943 -10.68449103562195 0 0 0
1300 1 5.588896121241545 12.788226546813597 -12.068273154883274 0 0 0
1401 1 4.758994104891533 12.393338482628263 -9.685723418322873 0 0 0
1292 1 7.120370675739652 9.110332630745315 -9.418488078844003 0 0 0
1194 1 7.9225603615090225 12.02664020805441 -13.15488370260139 0 0 0
1186 1 7.99924421301821 9.51603268448747 -11.831256307355396 0 0 0
1405 1 5.229193473117489 12.169761002660792 14.276506962012538 0 0 -1
1196 1 10.17819782841235 13.472722702164518 -12.793964553491268 0 0 0
1086 1 12.347692272787585 10.13893386842241 -12.888796913001658 0 0 0
1193 1 9.945946842404934 10.959725318557336 -11.656416084119417 0 0 0
1087 1 12.010678946492993 12.4115425437551 -11.291701525467541 0 0 0
1192 1 9.236771525526786 12.957637956302435 -10.5179145316723 0 0 0
1079 1 11.692875562714994 9.797058189328581 -10.245033025930066 0 0 0
1184 1 9.174058581760514 10.40994031502763 -9.289106205369558 0 0 0
1642 1 12.622608528541003 12.670824302883133 -13.829867246770709 -1 -1 0
1191 1 11.095013589102573 12.020620369312017 -9.06372452063124 0 0 0
928 1 13.013850756176256 13.549322747288151 -8.878334762939783 0 -1 0
1195 1 9.540857913272342 9.95434856460431 -14.027547739254038 0 0 0
1084 1 13.588000416054845 11.261298077903866 -10.110200195141303 0 0 0
1738 1 -13.731024648258536 -10.540100071823055 -7.896116909048639 0 0 0
1626 1 -10.770641272282312 -10.579157038465862 -4.157697226997021 0 0 0
1627 1 -10.302905382578135 -12.768989778042386 -5.140632060800986 0 0 0
1628 1 -11.968175265921978 -11.641482202968401 -6.516017953563891 0 0 0
1637 1 -9.816615319913872 -10.224224149060417 -6.404764260647726 0 0 0
1732 1 -12.782195992313348 -12.066904040037018 -4.2668542527798845 0 0 0
1519 1 -9.34985229645363 -12.365165921969313 -7.4333066293401515 0 0 0
1737 1 -12.50533052532405 -9.559648671942112 -5.516919209407188 0 0 0
1638 1 -11.622911199071364 -9.022728669344168 -7.816423774920001 0 0 0
1635 1 -8.699707403866485 -9.18831525275003 -3.9813949086572684 0 0 0
1630 1 -13.980447024186553 -12.996650064299516 -6.734743124326585 0 0 0
1731 1 -13.314249627033206 -9.859647743144869 -3.219285353465633 0 0 0
1735 1 -11.36616049144491 -8.27484587671135 -3.056103692371371 0 0 0
1542 1 -6.918197264298036 -8.425496493636048 -8.50200423755139 0 0 0
1517 1 -8.214852033459096 -11.356590862071279 -5.07536819200913 0 0 0
1414 1 -6.840601562039899 -13.099302364527894 -8.369287370778135 0 0 0
1424 1 -4.815474025165537 -11.639523186782464 -8.223922652626817 0 0 0
1412 1 -3.9383036125231943 -13.279915822995338 -4.6700186696818715 0 0 0
1413 1 -5.63093947861811 -12.108766784680252 -6.016939962088687 0 0 0
1516 1 -6.423219403450584 -12.523149656455596 -3.7085788690587282 0 0 0
1527 1 -6.10704404780904 -10.012674234559459 -5.005718141448398 0 0 0
1529 1 -7.323884682653429 -10.966800052284974 -7.261252825212785 0 0 0
1422 1 -3.6666415203804377 -10.767748086715182 -5.870487171508577 0 0 0
1423 1 -5.224144455076546 -9.49155868149118 -7.280968198612455 0 0 0
1528 1 -7.857737563440799 -8.743169831787657 -6.252436295619113 0 0 0
1421 1 -4.026971259326675 -8.50463326808326 -4.860670238496786 0 0 0
1411 1 -4.553874533021078 -11.171567444669845 -3.500650271325771 0 0 0
1518 1 -7.697244423813446 -13.499618942258026 -6.111362709210443 0 0 0
1311 1 -3.074580720970337 -12.990409376369682 -6.8838898968683315 0 0 0
1319 1 -2.70416274051248 -10.197045446502505 -8.124870378031229 0 0 0
1211 1 1.5695178566839978 -12.15471301989343 -7.723650919759135 0 0 0
1309 1 -1.8086215187583772 -11.806577344395398 -4.566447186080669 0 0 0
1318 1 -1.0388154451165992 -11.497074870935029 -6.8746763634225685 0 0 0
1202 1 0.7326007908708867 -12.597219944912558 -5.498255042422281 0 0 0
1210 1 0.9986031888263067 -10.009936302600927 -6.728075579133332 0 0 0
1316 1 0.13064709778780248 -10.33397750482495 -4.514812661519198 0 0 0
1317 1 -1.4631433446282571 -9.217698844752114 -5.939160596512179 0 0 0
1330 1 -0.5867207497267408 -8.790316828712289 -8.115304104838945 0 0 0
1208 1 2.1550705643114743 -8.797189197184755 -4.2962585685647525 0 0 0
1420 1 -2.539592626458827 -9.806600214167206 -3.581353875775946 0 0 0
1203 1 -0.50665806866329 -13.623319621422478 -7.852639404516698 0 0 0
1315 1 -0.45731605924102325 -8.126905634469887 -3.4632564457790824 0 0 0
1308 1 -0.1809692530291187 -12.996968296074588 -3.139841614451006 0 0 0
1201 1 2.3216629036383996 -13.669745685294611 -4.081949533594834 0 0 0
1002 1 4.18442297154848 -12.928365870852035 -8.550799143816612 0 0 0
1209 1 2.7417709018588443 -11.134887906277925 -5.346062449639879 0 0 0
1010 1 6.179958856966964 -11.433539397553513 -8.660879450377507 0 0 0
1221 1 3.168427534184575 -8.472018022680224 -6.769027017285567 0 0 0
1093 1 3.3178485423286386 -13.325511923689044 -6.27290921193163 0 0 0
1101 1 3.542682471082644 -10.74196260735923 -7.584883018512793 0 0 0
1001 1 7.029787421840657 -12.988536541608681 -4.955107504501559 0 0 0
1092 1 4.476859913663082 -12.153060345429124 -4.014702214586045 0 0 0
1098 1 6.562773213133726 -10.822012841368494 -4.030270402221529 0 0 0
1100 1 5.344611481143067 -11.868814329008721 -6.443623340383601 0 0 0
1008 1 7.317179678861679 -10.244377290062411 -6.216868884302706 0 0 0
1112 1 5.605729330548163 -9.241944429997854 -7.508568319089396 0 0 0
1099 1 4.705283567421288 -9.731087069672808 -5.319189331810422 0 0 0
1009 1 7.884709624162044 -12.55264505611216 -7.3195524452210785 0 0 0