LAMMPS data file via write_data, version 29 Sep 2021, timestep = 0

1873 atoms
3 atom types

-14.241087804253983 14.241087804253983 xlo xhi
-13.956506610865418 13.956506610865418 ylo yhi
-13.802315590516008 13.802315590516008 zlo zhi

Masses

1 55.847
2 1.008
3 1.008

Atoms # atomic

53 1 -13.74010931928241 -13.258867925782196 -11.661632877620605 0 0 0
62 1 -13.043469940559351 -11.152772184741616 -12.699476762982917 0 0 0
63 1 -11.163252809476912 -12.58193285592046 -12.290852092634225 0 0 0
119 1 -9.512734877209528 -11.201940974624922 -10.771202116445815 0 0 0
72 1 -10.335125369120757 -10.55220262938654 -13.383849099079487 0 0 0
73 1 -8.431885410045208 -12.064996698488944 -12.857235103376205 0 0 0
141 1 -6.483353741994838 -13.405766561447175 -12.188446373548722 0 0 0
130 1 -6.933238555981438 -10.597214931109782 -11.37297682382242 0 0 0
275 1 -5.534282295328531 -11.305595914190448 -13.34454366995214 0 0 1
84 1 -3.5885800066136184 -12.733550188733808 -12.705203898133611 0 0 0
140 1 -4.839628186059834 -12.044110948637842 -10.860817695481899 0 0 0
151 1 -0.12210367317636717 -12.751601289416216 -10.583865863442938 0 0 0
826 1 -0.8292712497351094 -12.027889731162864 -13.21849590624087 0 1 1
83 1 -2.128069376186419 -11.390143387680398 -11.266286794701918 0 0 0
52 1 -14.18141720914614 -10.39243408778407 -10.755547766790556 0 0 0
60 1 -13.441054058907515 -8.391895025473001 -11.946407822763897 0 0 0
61 1 -11.462564348271037 -9.802367792338089 -11.35954198792878 0 0 0
59 1 -11.858273709603978 -7.038017913188471 -10.319399113733319 0 0 0
71 1 -8.77025593884669 -9.112105590267332 -11.826078750798345 0 0 0
70 1 -10.675505633010385 -7.769304957419774 -12.372985046499464 0 0 0
81 1 -6.013372086973279 -8.551627069722633 -12.223938249423696 0 0 0
80 1 -7.927712623992578 -7.14409146684578 -12.9139902279882 0 0 0
127 1 -7.287377512870149 -7.919681049351137 -10.198746563459071 0 0 0
82 1 -3.998720440781076 -9.963100444171499 -11.897839837863923 0 0 0
450 1 -3.3028139892205335 -7.867700569331618 -12.980738459553683 0 0 1
147 1 -4.469479587650403 -7.465633367313548 -10.823943987472743 0 0 0
451 1 -1.3262902634635694 -9.333496851189349 -12.377103366029468 0 0 1
440 1 -0.6337658426063122 -7.333146500839078 -13.543053751748674 0 0 1
35 1 -12.55145441091807 -6.404641520714632 -12.889489808706301 0 0 0
58 1 -13.871277211516105 -5.769957076106763 -10.905611170397231 0 0 0
33 1 -13.102969386981412 -3.8552556775845535 -12.08573666571069 0 0 0
69 1 -9.286886329299659 -6.577552099374079 -10.903234534982937 0 0 0
68 1 -11.090417256288488 -5.162100133682753 -11.528432422849825 0 0 0
42 1 -9.79077690331452 -5.886575823265984 -13.55235434224913 0 0 0
79 1 -6.486369610110364 -5.954086021377464 -11.3153085100595 0 0 0
78 1 -8.224498576117192 -4.572112238992542 -11.883682372392377 0 0 0
87 1 -5.467909788229713 -3.967265686182749 -12.439013158362238 0 0 0
280 1 -5.120037660974688 -6.520795784105182 -13.428602913935944 0 0 1
89 1 -3.5620410412636616 -5.311542951858998 -11.94643502209197 0 0 0
91 1 -1.7470296337210893 -6.569990280547738 -11.311855768244046 0 0 0
420 1 -0.900108802084155 -4.643362217836332 -12.496017108551365 0 0 1
88 1 -2.17168031973808 -3.951610666432151 -10.397152073312826 0 0 0
121 1 -9.308465179559743 -13.923535258336678 -11.648190805764743 0 0 0
39 1 -12.264557710607747 -1.6411380008367225 -13.088730902069287 0 0 0
31 1 -13.41683314096229 -0.9301949098657545 -11.024125012389316 0 0 0
66 1 -11.564077972932495 -2.4924573781558887 -10.421269188561155 0 0 0
40 1 -10.146016757943235 -3.1903009195067042 -12.514448933718619 0 0 0
38 1 -10.779143784472765 -0.48724826597896786 -11.559306703442982 0 0 0
76 1 -8.73747790412034 -1.818276078858112 -10.969537941501041 0 0 0
44 1 -9.504208930908156 -1.1376592346118528 -13.560046637778607 0 0 0
45 1 -7.52753308642131 -2.4885703339699337 -12.933209299934383 0 0 0
85 1 -5.903922711902704 -1.2173584141646216 -11.481160468282567 0 0 0
86 1 -3.9405350744343455 -2.575373238090613 -10.927013905075258 0 0 0
3 1 -3.192673252486548 -0.5212501166643033 -11.98978535485865 0 0 0
4 1 -4.771132272261941 -1.8013657886988863 -13.585032868369266 0 0 0
48 1 -2.856767907318469 -3.206404379561844 -13.00331540048508 0 0 0
995 1 -1.1883425328718484 -1.9431773907533625 -11.506273736862529 0 0 0
155 1 -14.205039322889427 -13.242328831292452 -7.043336776938703 0 0 0
447 1 -0.08472079755254569 -2.530173662486627 -13.595940785053248 0 0 1
109 1 -12.224097034640746 -11.877175211566671 -10.219644904299313 0 0 0
176 1 -11.672330501185888 -12.745632130476833 -7.589959005599059 0 0 0
98 1 -13.524124280864926 -11.218825549504302 -8.128284735151091 0 0 0
110 1 -10.37200468272353 -13.302749273474658 -9.64206648413154 0 0 0
186 1 -8.85858485541248 -11.970319298378563 -8.09194851796738 0 0 0
108 1 -10.77133165844858 -10.646928427926818 -8.700272336481163 0 0 0
120 1 -7.5657832153643225 -12.641900913499057 -10.14297939784975 0 0 0
187 1 -6.869223277572666 -13.434087798704487 -7.700391459388993 0 0 0
206 1 -6.015398195553303 -11.476119386544173 -8.503005548291984 0 0 0
207 1 -4.064513455992698 -12.816838912471553 -8.023095308536213 0 0 0
216 1 -3.322044403766961 -10.822566524551707 -9.240044527626088 0 0 0
695 1 -3.011987651289976 -13.381202628465164 -10.092097902937617 0 1 0
218 1 -1.3986351831288957 -12.1211243831637 -8.578668628473945 0 0 0
107 1 -12.500316656912162 -9.11253840905343 -9.345867992065662 0 0 0
97 1 -13.847275215205704 -8.553378765098213 -7.2180733002150745 0 0 0
184 1 -9.30400204410519 -9.427989486775061 -7.126659395311439 0 0 0
117 1 -10.050597686842675 -8.57572208362711 -9.73981864002371 0 0 0
106 1 -11.159578400406968 -7.844255852016115 -7.614054207981588 0 0 0
116 1 -8.444657732112617 -7.3325257191721045 -8.085949555673213 0 0 0
118 1 -8.083358116505764 -9.85309606438344 -9.042989762351242 0 0 0
204 1 -6.399135084414365 -8.66781392528042 -7.711057393289567 0 0 0
205 1 -4.637526539359959 -10.203922185009635 -6.990054552799039 0 0 0
128 1 -5.346343395497259 -9.439106616275915 -9.7476913288649 0 0 0
214 1 -3.7177686576027167 -8.184763722999463 -8.19258570714261 0 0 0
149 1 -2.439346794416833 -8.713244604482355 -10.308813051407986 0 0 0
150 1 -0.5239743190703514 -10.038379468307777 -9.651701119898041 0 0 0
215 1 -1.8501339861244226 -9.488177275222057 -7.6358893342911855 0 0 0
148 1 -0.9033660260650667 -7.368172168779371 -8.684958620740264 0 0 0
105 1 -13.057095315229594 -6.510469410169525 -8.24431927823942 0 0 0
57 1 -12.333444825798358 -4.459950411300241 -9.351590560119904 0 0 0
103 1 -13.465634227806616 -3.8312374216611964 -7.262095761426043 0 0 0
115 1 -10.389819913117247 -5.897042150589291 -8.83333401370814 0 0 0
67 1 -9.59311920331507 -3.8954154337676865 -9.927644040573028 0 0 0
114 1 -8.764484236979438 -4.596548550173754 -7.305824383248727 0 0 0
125 1 -7.569791487366782 -5.213215733007923 -9.302942305291008 0 0 0
124 1 -6.030029235041946 -3.888208373111798 -7.768175041030538 0 0 0
126 1 -5.615272186242974 -6.689701560109871 -8.789288562556164 0 0 0
145 1 -4.9157597924230885 -4.655577440810141 -9.792288330335381 0 0 0
212 1 -4.096305539610299 -5.54345973922247 -7.2286949936356795 0 0 0
146 1 -2.9737282760808785 -6.131515867917203 -9.278271299484237 0 0 0
11 1 -1.324038857629379 -4.78014524185169 -7.88561985992933 0 0 0
9 1 -0.07000630339515546 -5.374420858499999 -9.85829763067228 0 0 0
1324 1 -13.267130425865817 -4.740022787368108 -0.020032591701772517 1 0 0
55 1 -12.688221293962888 -1.813013981409071 -8.445584683331786 0 0 0
113 1 -10.743987370266659 -3.061362241659145 -7.811877716433388 0 0 0
65 1 -9.95872407665806 -1.1574998563456553 -8.940903589743801 0 0 0
77 1 -6.730627223275022 -3.1965985366739584 -10.416689923037294 0 0 0
75 1 -7.06092468604894 -0.5092945960824462 -9.432913864941206 0 0 0
123 1 -8.008356913465377 -2.522518362136852 -8.324234733619303 0 0 0
144 1 -3.3024730553967405 -3.429433028888525 -8.30378654462552 0 0 0
143 1 -5.168838646629364 -1.9878836745851078 -8.959983636662662 0 0 0
142 1 -3.6302781246710722 -0.617363005680307 -7.321559659457485 0 0 0
8 1 -0.5098839665239492 -2.7676956572767235 -8.960501476071864 0 0 0
7 1 -2.320182579618958 -1.355145121699957 -9.408920449111632 0 0 0
156 1 -12.760914818080327 -11.94352286063717 -5.457210254707476 0 0 0
948 1 -14.116605126570217 -11.396109484982087 -3.5957569116304935 1 0 0
222 1 -11.242637920097721 -10.657815336189238 -3.922939690885144 0 0 0
25 1 -10.922868258769183 -13.488587064279475 -4.900081899497762 0 0 0
175 1 -10.173073477093695 -11.485410632502063 -6.052961264096705 0 0 0
191 1 -8.138379359925345 -12.72300430618223 -5.484628428808028 0 0 0
192 1 -6.609524621103081 -11.43149422094264 -3.8886835586798387 0 0 0
185 1 -7.263943087266197 -10.649898366159551 -6.547906361651704 0 0 0
161 1 -5.504167043923859 -12.234978048699173 -5.945735537799318 0 0 0
574 1 -3.499286805183914 -13.495879921786594 -5.4337599855419025 0 1 0
162 1 -3.8579064811014927 -10.897797207321494 -4.370036889565155 0 0 0
131 1 -2.711323667096396 -11.453935517935113 -6.531115616324807 0 0 0
160 1 -1.907505439671258 -12.218210112684122 -3.881487139859223 0 0 0
129 1 -0.7483793756314245 -12.872504033175431 -6.002741574561828 0 0 0
174 1 -12.028350715216593 -9.904509596375636 -6.611235510193314 0 0 0
154 1 -13.207223625741538 -9.330488284915013 -4.565624365664856 0 0 0
172 1 -12.442104687951325 -7.190087043155659 -5.646704247936192 0 0 0
173 1 -10.556426362143455 -8.681801815804185 -5.132270619649901 0 0 0
195 1 -8.894022037846618 -7.430815843476763 -3.57120254089018 0 0 0
193 1 -8.63746939389026 -10.089581530750925 -4.491006154766708 0 0 0
183 1 -7.7307543614852445 -8.137580346658767 -5.7580008574679695 0 0 0
163 1 -5.83308749474757 -9.408441245858633 -4.916171443297527 0 0 0
203 1 -4.8607036303217495 -7.492220167513701 -6.234527290302589 0 0 0
133 1 -3.0855057005305166 -8.829504101904632 -5.530258587672538 0 0 0
164 1 -4.166129622097932 -8.376397235410717 -3.53074452158946 0 0 0
1127 1 -0.3519296482438836 -8.18026219752262 -6.0523538237761105 0 0 0
132 1 -1.1079666456457034 -10.278796703735598 -4.9636549217656025 0 0 0
134 1 -1.4845814616064885 -7.376947788995528 -4.062642053853082 0 0 0
170 1 -12.65661638151285 -4.533781296064619 -4.546373296032318 0 0 0
104 1 -11.496388674900576 -5.01293556902163 -6.738877116088227 0 0 0
219 1 -13.622235893562296 -6.610747403339274 -3.7598764964632903 0 0 0
182 1 -9.754467463267895 -6.541076909566029 -6.156702172895857 0 0 0
171 1 -10.8126280700683 -5.959585518887467 -4.10956779088573 0 0 0
180 1 -9.94743126521474 -3.9215347774403444 -5.305844138664298 0 0 0
202 1 -6.804389055287845 -6.106521778379987 -6.734790116077478 0 0 0
165 1 -6.0017035717926674 -6.771643545848081 -4.255581343119482 0 0 0
181 1 -7.993621781462227 -5.283619919230345 -4.572384289067248 0 0 0
135 1 -3.3935052002380512 -5.978644085037233 -4.652911254038257 0 0 0
201 1 -5.375823260140351 -4.51037471288206 -5.181988648381797 0 0 0
213 1 -2.084989493613252 -6.759150724090782 -6.673053605353577 0 0 0
1125 1 -0.4994100475431402 -5.535155445205824 -5.220116864163799 0 0 0
211 1 -2.55718648566509 -4.137559235041209 -5.678255403917724 0 0 0
101 1 -13.771011871074215 -1.0526095465137715 -6.3707201586161295 0 0 0
102 1 -11.89436951894897 -2.4149319747207088 -5.646719674966299 0 0 0
158 1 -13.097016138882369 -1.8485764762587937 -3.517037779566838 0 0 0
111 1 -11.032008969042893 -0.4843235153582288 -6.811618213688523 0 0 0
178 1 -10.379774981721257 -1.2174289915255176 -4.20690580272842 0 0 0
112 1 -9.175608449909474 -1.8322536493516477 -6.234483731563684 0 0 0
122 1 -6.39141543392449 -1.2847717143599162 -6.833263780493839 0 0 0
179 1 -8.294825538508242 -2.5632617277681167 -3.634366962248306 0 0 0
200 1 -7.376633846051002 -3.3118834930908196 -5.7424907844212925 0 0 0
188 1 -7.589219664330963 -0.5942289525972821 -4.775154959253054 0 0 0
189 1 -5.656837702389634 -2.0402659835745496 -4.322754678921346 0 0 0
137 1 -3.7296179700401098 -3.284106094786644 -3.5588046269638767 0 0 0
210 1 -4.486773926364604 -2.7370278227942215 -6.27217143633684 0 0 0
209 1 -2.8837341737863618 -1.4135688927570538 -4.735143818170725 0 0 0
1074 1 -0.04833948912896169 -0.6767154249112934 -5.194660650844261 0 0 0
10 1 -1.684616232663302 -2.1106574648070566 -6.782144348207348 0 0 0
12 1 -0.8828829182801528 -2.708988969849324 -4.166474628556934 0 0 0
233 1 -13.244868189531973 -12.048348108064749 -0.7724978026143532 0 0 0
221 1 -12.144547712609667 -12.762625220263331 -2.8375287969959047 0 0 0
382 1 -9.408494406332338 -12.13801505924188 -3.2917890759041057 0 0 0
589 1 -11.418497763150851 -13.514631677811654 -0.2611257833329059 0 1 0
27 1 -10.586005435812645 -11.499903609867618 -1.3682718030352063 0 0 0
656 1 -8.582468101322522 -12.898052435975616 -0.8323783260376025 0 1 0
610 1 -7.487573508736893 -13.469286346928493 -2.7676963939564185 0 1 0
930 1 -7.838267597271856 -10.873185226023597 -1.946163344277135 0 1 0
669 1 -5.821059245269007 -12.134865505490792 -1.2712765586706958 0 1 0
619 1 -4.770177734899233 -12.952987407457442 -3.4134384705774554 0 1 0
18 1 -3.1656546514839157 -11.652272148057996 -1.9571420505569446 0 0 0
22 1 -4.097195953373321 -13.601778003726123 -0.8602345220665573 0 0 0
17 1 -1.2201014388213487 -12.95829146949519 -1.340812580226629 0 0 0
13 1 -0.3529956612002625 -10.927395158881621 -2.4545571215101187 0 0 0
223 1 -12.496312056461386 -9.946742778496052 -1.8787446814968103 0 0 0
385 1 -12.878656818092002 -7.3739206412970075 -1.1254610306445123 0 0 0
225 1 -11.634999834691563 -7.988658458329473 -3.1463579107277244 0 0 0
681 1 -7.920680717578147 -0.7062437876614052 -0.1661064608939764 0 0 0
231 1 -11.025057568441623 -8.650459378426998 -0.34692222666696004 0 0 0
224 1 -9.823731741036582 -9.425118949193006 -2.4024946484030902 0 0 0
23 1 -6.378810728091692 -9.520174072210619 -0.4169826989821477 0 0 0
190 1 -6.988046113862627 -8.699242229906975 -2.9305197236672225 0 0 0
24 1 -8.12139651482323 -8.161313655411924 -0.9504337956896496 0 0 0
20 1 -5.076231600741471 -10.18367795446432 -2.4262112130953106 0 0 0
21 1 -3.4661014279678994 -8.830064468123654 -0.9392219377982673 0 0 0
194 1 -5.383724046977331 -7.494444146273441 -1.4116682848089486 0 0 0
19 1 -1.5901010358913474 -10.353844980731477 -0.34877537214008036 0 0 0
14 1 -2.2701914979555315 -9.558621029290798 -2.8550966969249494 0 0 0
1058 1 -0.7585623511887309 -8.278427103144168 -1.385146358032257 0 0 0
152 1 -14.092808785024026 -3.9331525502821947 -2.589484678152587 0 0 0
227 1 -12.02793982528981 -5.305523612180288 -2.0562007245111165 0 0 0
226 1 -10.059210579720261 -6.776985182042022 -1.5506362990559168 0 0 0
229 1 -10.45372940382395 -4.000482417664573 -0.49908030465735287 0 0 0
197 1 -9.290434821193372 -4.674322460755024 -2.544746221679615 0 0 0
196 1 -7.354991445022919 -6.122933947645121 -2.0817589615430148 0 0 0
167 1 -6.394027985143486 -4.031752809942187 -3.033418608156433 0 0 0
282 1 -5.727807635216793 -4.870530316418845 -0.2520641558357113 0 0 0
198 1 -7.720062277217092 -3.5537158842144176 -0.9181035322559463 0 0 0
166 1 -4.597016943951003 -5.513584685701954 -2.6283607478906106 0 0 0
168 1 -2.9983503718340003 -4.207321894083734 -1.119464895062281 0 0 0
15 1 -2.6712304684386226 -6.801482604730079 -2.0182882339557224 0 0 0
992 1 -0.41701910100718287 -3.4798570975320597 -1.7114235200915786 0 0 0
16 1 -1.0376718584946047 -5.6449131620670485 -0.4328372154443265 0 0 0
136 1 -1.7461520525118512 -4.735317168594825 -3.1967908233434326 0 0 0
1 1 -12.390943373646383 -2.6699983507239793 -1.1223774551110548 0 0 0
645 1 -11.604005363782 -0.6046091360102128 -2.1012505146012064 0 0 0
199 1 -9.631172496316758 -1.9472123986877392 -1.5742337711170364 0 0 0
159 1 -11.064761143446079 -3.3022667227512503 -3.1199179701562887 0 0 0
169 1 -6.7166675903331425 -1.4087941139047242 -2.050184015808812 0 0 0
686 1 -4.914441741123342 -2.917267573175957 -1.5128566786058517 0 0 0
139 1 -4.192398630432972 -0.7359173720753489 -2.6383415657079503 0 0 0
138 1 -2.3198992442488553 -1.9619168374751563 -2.0363668482889477 0 0 0
1659 1 -14.126402017062736 -0.2891826086615925 -13.616638825801349 1 0 1
1873 1 -0.6908205106324825 -0.8460224484152707 -0.5331955064168792 0 0 0
471 1 -1.3406848205459028 -0.1449248250791424 -3.1321179024727606 0 0 0
43 1 -7.68782837305166 -9.953802672516673 -13.788466678295507 0 0 0
685 1 -5.284728220380828 -0.08758716719254167 -0.6307883280478013 0 0 0
408 1 -3.4411404318272893 -1.4477328860299217 -0.03508381676903838 0 0 0
405 1 -12.618846434191383 -12.924863130282898 1.724687322097699 0 0 0
383 1 -11.685615167089246 -10.772072023722044 0.6943421752043175 0 0 0
646 1 -9.714385246073231 -12.265916877599638 1.202817626302135 0 1 0
891 1 -11.003424874215971 -11.560372412084691 3.262641187104853 0 1 0
452 1 -7.232494334694102 -11.4310086660089 0.7507185594937589 0 0 0
384 1 -8.321327163281152 -11.092749105663701 2.8714336546830967 0 0 0
929 1 -7.971993369553099 -13.672574146402924 1.840281857869476 0 1 0
340 1 -6.322517561387987 -12.405086508787964 3.4512481154820787 0 0 0
464 1 -5.162456611468743 -13.008790087663794 1.2562661450019839 0 0 0
287 1 -3.625651067119918 -11.757056595428633 2.840849399086318 0 0 0
462 1 -4.294687092984383 -11.012440015365113 0.15437701556668237 0 0 0
463 1 -2.421201618875351 -12.480589491566676 0.6672030161151241 0 0 0
459 1 -0.8282309579859444 -11.216130305177277 2.165593011570662 0 0 0
461 1 -1.6619425610336513 -13.208516889372662 3.419915802812943 0 0 0
404 1 -13.618870202899204 -9.394226057534539 0.04346610199871037 0 0 0
821 1 -1.3225497450171684 -13.848472453208243 10.626371914360929 0 1 0
398 1 -12.921661262265006 -10.19559423709697 2.7666754246874614 0 0 0
387 1 -12.07313171972692 -8.101394404245744 1.7397170411206755 0 0 0
388 1 -10.168441695831557 -9.4655062280741 2.1790697488829363 0 0 0
386 1 -9.299218632956663 -7.375666432964083 1.140655149280633 0 0 0
26 1 -9.131403186864725 -10.116070629098038 0.19000669083181876 0 0 0
337 1 -7.475624762748458 -9.002794248869726 1.6787566487550265 0 0 0
345 1 -5.80720231439855 -7.669117444214394 3.0907709406255552 0 0 0
338 1 -5.515273322285733 -10.314214713593767 2.1377916983369207 0 0 0
336 1 -4.699153506149639 -8.269615279532537 1.1009448446397325 0 0 0
285 1 -2.8037336493191596 -9.784972784093855 1.719805839372082 0 0 0
458 1 -1.8782374867907006 -7.626367691654 0.6541006932815918 0 0 0
239 1 -1.1098416768071075 -8.42608667922236 3.149709685108581 0 0 0
324 1 -9.814463343200721 -2.9368596310141974 10.457070804317096 0 0 0
395 1 -12.54233513259739 -5.515338743880417 2.639921122748019 0 0 0
407 1 -14.027938476809776 -6.764913130720708 1.0614147810846681 0 0 0
442 1 -2.8264215275308757 -10.708102374965776 13.714714632266018 0 0 0
406 1 -11.262572064151843 -6.044306993144688 0.43238895015901413 0 0 0
396 1 -10.434801390774153 -6.894381508248889 3.2110812282201113 0 0 0
394 1 -9.67748655948861 -4.852709663718603 2.0409107170785834 0 0 0
289 1 -4.385272392558896 -13.843811224019461 3.9327726694326746 0 0 0
335 1 -6.683421179343825 -6.854469533757357 0.6485348885277311 0 0 0
344 1 -7.7658975971580375 -6.280853391590832 2.6875324497752633 0 0 0
343 1 -7.082045605807184 -4.226789168066343 1.6509979719692947 0 0 0
238 1 -3.0419727657810274 -7.033286186159264 2.6869134990775354 0 0 0
284 1 -4.938304813824693 -5.438041845189797 2.2089046138337185 0 0 0
341 1 -4.355438720450602 -3.4963203604477435 1.119032709739848 0 0 0
418 1 -2.1052198321238222 -1.1207597426745828 13.522176939836418 0 0 0
237 1 -0.2807583367764579 -6.311881498574404 2.239288852622222 0 0 0
236 1 -2.268314689039384 -4.923229789689307 1.5810102667168273 0 0 0
421 1 -0.6964353494425612 -3.7833413003660965 3.1086781961852576 0 0 0
393 1 -11.608675445918829 -3.453343195691943 1.5528454806075356 0 0 0
1332 1 -13.481382888498024 -2.023639200480323 0.8484328036592803 1 0 0
757 1 -12.198949833025239 -0.6977341026187087 2.5404242409662974 0 0 0
342 1 -8.881667844471522 -2.675224948163814 1.048938214169226 0 0 0
392 1 -10.937626320637296 -1.3094500489235852 0.4193147109003874 0 0 0
352 1 -10.194620511231795 -2.058192825303376 3.0046975140786873 0 0 0
745 1 -9.348324234476692 -0.13214317752171034 1.8467794781962859 0 0 0
682 1 -6.170181461859025 -2.110835064238451 0.5500268449707448 0 0 0
351 1 -7.29093814318706 -1.406170887196513 2.640690556882957 0 0 0
276 1 -5.399614621735029 -1.218752400854715 11.416116608106543 0 0 0
291 1 -5.419998317639104 -2.8340650206175724 3.231422191652028 0 0 0
724 1 -4.648459993607663 -0.8532406703780975 2.107990547640176 0 0 0
446 1 -3.5090397562804405 -2.565620895078995 11.989434152529926 0 0 0
235 1 -1.546652426818751 -2.884289664561244 0.530917623274652 0 0 0
290 1 -2.6730831548979737 -2.273648770442403 2.6172523694122436 0 0 0
457 1 -0.5889774291283718 -13.815043267486317 1.2252784669439638 0 0 0
883 1 -12.900840624620669 -12.97616023935041 6.5324071798018775 0 1 0
399 1 -13.711349786653747 -12.216340944968644 3.7221302015207396 0 0 0
391 1 -11.74405530050457 -13.773218535627834 4.47317373552851 0 0 0
403 1 -12.098152170992492 -10.933863068366547 5.393693412552688 0 0 0
884 1 -10.152586525352525 -12.352536046015832 6.082824114100889 0 1 0
890 1 -9.144917937005484 -13.119620274490362 3.9698424008072184 0 1 0
922 1 -7.596949546199615 -11.846757060006022 5.423772369151697 0 1 0
889 1 -8.346561215764753 -13.767863543711107 6.477353949219998 0 1 0
871 1 -5.536143899766449 -13.191925069904888 6.05110163239854 0 1 0
241 1 -0.035604709022647896 -11.932897221559134 4.825277036351418 0 0 0
288 1 -4.750918516026097 -11.110154342805714 4.862829929254252 0 0 0
242 1 -2.8183623053859286 -12.522930208871026 5.400729528019378 0 0 0
1300 1 -14.061766805230201 -9.562635993227588 4.820488761811793 1 0 0
240 1 -1.9444510409150002 -10.481856380624745 4.305816357295873 0 0 0
424 1 -1.2691358182689978 -11.241548914552899 6.907582444912103 0 0 0
402 1 -12.469250500518536 -8.31934988948927 6.344993198635214 0 0 0
1283 1 -13.296924781225457 -7.544681722613342 3.7701363464140005 1 0 0
1306 1 -13.89218648241838 -1.9606561610362512 5.6240523368713 1 0 0
397 1 -11.378596112055693 -8.963174106685543 4.278115489954024 0 0 0
390 1 -9.38388202137577 -10.369943775109371 4.677728474882011 0 0 0
357 1 -9.874441257095661 -7.685623231735981 5.791012669558478 0 0 0
346 1 -8.532881036933402 -8.25774559196033 3.6195921460351475 0 0 0
358 1 -10.655599221275272 -9.6882662806087 6.978110418386342 0 0 0
339 1 -6.691992890866779 -9.779605190504912 4.234001145567342 0 0 0
348 1 -7.902950506463816 -8.926760233303188 6.366735567517784 0 0 0
286 1 -3.865792866594216 -9.04924842654749 3.75961712873241 0 0 0
251 1 -3.188232056981601 -9.81581346479653 6.391102583329134 0 0 0
347 1 -5.077233252458303 -8.31980854144398 5.870824816695331 0 0 0
423 1 -0.4297093272428434 -9.18150018596777 5.910530745853757 0 0 0
249 1 -2.410514560576832 -7.821851932394165 5.239984771545883 0 0 0
356 1 -11.737391098240128 -6.26249068200986 5.1092408483984375 0 0 0
401 1 -13.668710635007608 -4.8035895123175045 4.884959832178938 0 0 0
364 1 -12.07734529460458 -3.5542587527664296 6.110273915939791 0 0 0
355 1 -8.93770879195012 -5.5864652752489725 4.6898280201957885 0 0 0
354 1 -10.805016553721007 -4.203138404113226 4.011043713284613 0 0 0
365 1 -10.260857351353048 -5.041931754930651 6.61306985613591 0 0 0
295 1 -6.994560865308621 -6.997984599984222 5.185834955428843 0 0 0
303 1 -7.561512306699443 -4.267503959060651 6.341830722867185 0 0 0
293 1 -6.287051619128955 -4.908616939099936 4.283756352919626 0 0 0
353 1 -8.208194940687843 -3.3771650422042168 3.524738700465056 0 0 0
292 1 -3.4731037490754115 -4.247465974520491 3.6716009501133744 0 0 0
294 1 -4.317189595900629 -6.327951929512704 4.548597597030172 0 0 0
246 1 -4.708779036412157 -3.7036395279722374 5.717381834493528 0 0 0
304 1 -5.500992261750888 -5.770203185691846 6.746670441311197 0 0 0
248 1 -2.760241859157807 -5.125845723489425 6.182902236108648 0 0 0
247 1 -1.5579130872495526 -5.746804962948971 4.28852854838893 0 0 0
428 1 -0.7900371041944325 -6.427207923479013 6.786235471765268 0 0 0
454 1 -6.5747945388298215 -0.5732435104626816 13.509472574638716 0 0 0
1297 1 -12.987840083199071 -2.9178500661287714 3.512463919950372 1 0 0
400 1 -11.357401677844097 -1.433712469275287 5.163198452431287 0 0 0
931 1 -8.696993469454089 -13.94620230150851 11.104076034154238 0 1 0
283 1 -3.8185128345693524 -6.2098572547861695 0.10252575377683115 0 0 0
363 1 -9.49400563605143 -2.9700325782069577 5.60905097016383 0 0 0
748 1 -8.73768000706034 -0.8530903941442585 4.604731971900273 0 0 0
362 1 -9.855653346402558 -0.13994485340094087 6.610355739507538 0 0 0
301 1 -6.705092611209595 -2.2420326743086587 5.164565022443105 0 0 0
300 1 -5.831188350171878 -0.11945071666789175 4.189673136345414 0 0 0
255 1 -3.881753338879216 -1.6538786396159715 4.603400576782109 0 0 0
256 1 -5.084951571162916 -1.015428539086619 6.618110790479362 0 0 0
426 1 -1.8674126355756506 -3.1439116785536694 5.140173721320702 0 0 0
779 1 -2.3104920021026523 -0.22253827327715747 6.131119113361899 0 0 0
245 1 -1.1107650838404393 -0.9934145552219125 4.074970098258339 0 0 0
780 1 -0.405213337563449 -1.6923909516051427 6.574560116720287 0 0 0
377 1 -12.648410302051666 -10.979431650731074 10.083951154011894 0 0 0
909 1 -12.271001364578217 -13.691584549412346 9.075729292501526 0 1 0
360 1 -11.47609251416652 -11.641233795514925 8.041544172891347 0 0 0
445 1 -1.0166344181303302 -1.689417992452075 11.386276196527254 0 0 0
309 1 -9.545324001783444 -13.1560879939742 8.664705514556607 0 0 0
350 1 -8.654070262130865 -11.032134870737409 7.523694519698454 0 0 0
915 1 -6.825033054077068 -12.484246710976155 7.9352503462190835 0 1 0
320 1 -7.806715519067616 -11.865550684973687 10.180850719934481 0 0 0
298 1 -4.014659891374237 -11.793773331110074 7.4787975682912435 0 0 0
254 1 -3.3538902073411965 -12.605659025037852 10.062389042139712 0 0 0
299 1 -5.2807689311893675 -11.295236907911423 9.577114892067614 0 0 0
455 1 -6.249982296900504 -3.0989380322148783 12.562881440166295 0 0 0
432 1 -0.5070292489176342 -11.962811765175205 9.568548969221029 0 0 0
425 1 -2.1962245345096196 -13.204136720032297 8.017195879444037 0 0 0
253 1 -2.4283507257850694 -10.597472353918711 9.059427975204718 0 0 0
1302 1 -13.368836406479298 -10.319284564011628 7.501944992819022 1 0 0
369 1 -11.933479496779373 -8.991290904001207 8.928468109484017 0 0 0
368 1 -13.873643094479517 -7.668733506860008 8.420093410922858 0 0 0
371 1 -9.96380730084873 -10.431577089435308 9.53871103748086 0 0 0
307 1 -9.079431374730804 -8.357788564722963 8.40996160528505 0 0 0
349 1 -6.028901925167064 -10.548954808698515 6.787422958169904 0 0 0
359 1 -7.204296228625644 -9.759463375721815 8.948075099685452 0 0 0
297 1 -6.288232901487489 -7.718637433725878 7.82504435043778 0 0 0
316 1 -7.478342973534409 -7.223967941300043 9.956744051823536 0 0 0
252 1 -4.470034557882082 -9.342472775650945 8.32652973357712 0 0 0
296 1 -3.57481177047889 -7.056456087518859 7.348917038393116 0 0 0
261 1 -2.895642937508036 -7.897232223467128 9.901960254745392 0 0 0
430 1 -1.7807391409090396 -8.585353674035684 7.896098781658077 0 0 0
243 1 -0.9032526112770132 -13.819867702210956 6.120268283860893 0 0 0
376 1 -12.193547486284064 -6.27520881750241 9.857070479617933 0 0 0
366 1 -12.827877378093541 -5.626549194477349 7.27417322075293 0 0 0
375 1 -11.144707432208502 -4.456891153747634 8.909320383256423 0 0 0
367 1 -11.080425349840835 -7.0204264593423105 7.867576943588491 0 0 0
315 1 -9.465703239601268 -5.8981885555474225 9.339852453271456 0 0 0
313 1 -8.701131119317953 -3.746157364283823 8.404760964051247 0 0 0
305 1 -8.338949408690285 -6.405797172510194 7.111032120502719 0 0 0
314 1 -6.753276364655732 -5.09799586814664 8.859970969712927 0 0 0
306 1 -4.853659437221687 -6.548558996255639 9.442023580570604 0 0 0
259 1 -3.9590302727472544 -4.494017071384128 8.271380084171385 0 0 0
269 1 -5.268486860438017 -3.816068307135481 10.313257757770396 0 0 0
250 1 -1.9900198215057898 -5.884882345996763 8.903826120454857 0 0 0
427 1 -1.2514944220700652 -3.7531177198219776 7.772069194861997 0 0 0
429 1 -0.4959901328779406 -4.589488990240456 10.459672565136826 0 0 0
755 1 -13.799890929628889 -0.2857879970636965 9.286886744668545 0 0 0
1276 1 -12.59924634407541 -0.9607769031730857 7.306804884277968 1 0 0
374 1 -13.190411321204323 -3.016529316166354 8.34023541755174 0 0 0
323 1 -11.776428260274738 -1.6536730287503207 9.771255350241871 0 0 0
373 1 -10.578726010316235 -2.29484730368001 7.750155031896396 0 0 0
322 1 -9.04757923860291 -0.9452044594544056 9.253549033475425 0 0 0
710 1 -6.34976069201022 -0.4475956615741925 8.596160109455669 0 0 0
302 1 -5.952738768725986 -2.984373565467436 7.784377633511115 0 0 0
312 1 -7.989486967871525 -1.7338871760111036 7.264543553848943 0 0 0
268 1 -7.1240295245642695 -2.386036287931635 9.925655410587629 0 0 0
258 1 -4.450874164711109 -1.7637265503222714 9.270208621251571 0 0 0
257 1 -3.1261993045885266 -2.2640485194255984 7.071098857172258 0 0 0
436 1 -2.493678757191635 -3.1786019357043624 9.78266002448081 0 0 0
434 1 -1.6861805330946478 -1.0441096790090896 8.780709176113538 0 0 0
1173 1 -14.124303243801066 -5.021297400774417 9.326083421254244 1 0 0
1275 1 -13.42037216271345 -13.031791976395395 11.13832996915056 1 0 0
1069 1 -11.970809088449668 -11.839787554884467 12.764524247815041 1 0 -1
1179 1 -13.790108572019571 -10.337554843728913 12.12478590082882 1 0 0
277 1 -8.12961897222824 -1.7825039360131267 11.960739018591193 0 0 0
329 1 -10.657168873143867 -12.496168203837458 10.67163224792432 0 0 0
30 1 -9.98698906031579 -13.33411282125323 13.247995475412475 0 0 -1
274 1 -9.202565181581921 -11.288059688014846 12.094723949551417 0 0 0
321 1 -7.126930923745635 -12.572773673552275 12.808080591071699 0 0 0
310 1 -6.077993497032679 -13.37444095161193 10.614329971391514 0 0 0
264 1 -6.449827521807281 -10.533414056520115 11.703453131477003 0 0 0
703 1 -1.899373498172766 -0.20888375831685835 1.6888433362852062 0 0 0
265 1 -4.507246620637863 -12.044897873818353 12.171609828761314 0 0 0
267 1 -3.0181272500275202 -0.4181086977050388 10.97531630144008 0 0 0