LAMMPS data file via write_data, version 2 Aug 2023, timestep = 0, units = metal

1870 atoms
3 atom types

-13.954080850622624 13.954080850622624 xlo xhi
-14.244216276463197 14.244216276463197 ylo yhi
-13.811050032126387 13.811050032126387 zlo zhi

Masses

1 55.847
2 1.008
3 1.008

Atoms # atomic

1260 1 -12.305671114823621 -12.1638803139939 -12.755791546977134 0 0 0
1118 1 -10.431191480342049 -11.839973481586899 -9.10340423269582 0 0 0
186 1 -9.026974400844416 -9.780248403452369 -12.394122003438675 0 0 1
1862 1 -11.610426825360797 -13.275594490744623 -10.573883132542104 0 1 0
1131 1 -13.101888446818585 -11.348251908630449 -10.139993218810472 0 0 0
1262 1 -11.097537827801169 -10.546391768863781 -11.254501338571272 0 0 0
1258 1 -9.715730550210903 -12.494757696349007 -11.860394676502002 0 0 0
1259 1 -9.013768469362525 -13.58355454753191 -9.678016179589344 0 0 0
1438 1 -11.772299741804868 -9.325969597162548 -13.274032053707534 0 0 0
1263 1 -9.856609776312036 -9.211556930778464 -9.802692618232136 0 0 0
1279 1 -11.86249186759472 -9.861550950402275 -8.630436215251704 0 0 0
1869 1 -10.874049915776743 -14.064504875847852 -13.262397345253849 0 1 0
1129 1 -13.778175886244405 -14.209398886010886 -9.548821312148565 0 0 0
1276 1 -13.668644981781188 -10.120794435822104 -12.184738327905851 0 0 0
1277 1 -12.444400615010352 -8.563580336406922 -10.60989354260367 0 0 0
1261 1 -8.354174646347017 -10.975567483383305 -10.252209637243464 0 0 0
1244 1 -6.999698529091337 -12.781184543899693 -10.719741945489137 0 0 0
1245 1 -7.623190392029783 -11.676511419693327 -12.849681504012542 0 0 0
1387 1 -4.3158168503148815 -9.33041172367054 -12.418613690213025 0 0 0
1405 1 -4.923366710398561 -12.029404748348316 -11.814104856251458 0 0 0
1247 1 -6.376501010443174 -10.174258217980885 -11.411489187373917 0 0 0
1246 1 -5.671596984379104 -11.28275715436994 -9.249908697720599 0 0 0
1248 1 -7.322506442120831 -9.49149012499527 -8.723243598231036 0 0 0
1096 1 -4.2802725067990135 -13.252653932074935 -9.731426891554273 0 0 0
1231 1 -3.5851784470782455 -10.47998832293661 -10.421149206910606 0 0 0
1403 1 -6.096860944864536 -13.489457149931841 -13.365833764634427 0 0 0
1229 1 -3.4727267504525283 -13.994137188818225 -12.361830878521223 0 0 0
1108 1 -6.3731193566642 -14.083616885526704 -8.670398046516304 0 0 0
1404 1 -7.044810001125712 -8.96222636582962 -13.42506976310897 0 0 0
1388 1 -2.7681260825307135 -11.267807468457281 -12.876935682194349 0 0 0
1215 1 -0.16099083794872193 -11.556262330831945 -11.881250460681084 0 0 0
1085 1 -2.1183000019502796 -12.240398830684102 -10.841124236804674 0 0 0
1216 1 -0.8475982327140095 -10.740131975932702 -9.252645948633804 0 0 0
1217 1 -1.646818937136029 -9.543029408885964 -11.373731192568686 0 0 0
1095 1 -1.538619729111785 -13.565162643113474 -8.753042224326814 0 0 0
1198 1 1.319866231179608 -13.447070922017678 -12.394884843888809 0 0 0
1074 1 0.5844599474364056 -12.712697587064316 -9.778047398045615 0 0 0
1202 1 1.047748692497315 -9.973360169773766 -10.398060443524104 0 0 0
1355 1 1.848893323170877 -10.721082454346028 -12.962680252438632 0 0 0
1199 1 2.5922780565481496 -11.979383667486488 -10.77775415458013 0 0 0
1370 1 -1.35529617565075 -13.050511557767821 -13.509586232554444 0 0 0
1233 1 -2.397906211662953 -8.901065286902714 -8.785216455365216 0 0 0
1371 1 0.5853343851608681 -8.743398740914486 -12.325736586906084 0 0 0
1073 1 1.751482184644118 -11.170169823894307 -8.345836290023286 0 0 0
1185 1 3.1056606157854567 -9.259623932674401 -11.274835115184208 0 0 0
1072 1 3.2102298078314604 -13.15527214306032 -8.763529726777374 0 0 0
1338 1 4.5923630058299345 -11.109487295663616 -11.943841369815315 0 0 0
1050 1 7.917975808260103 -12.679150855817415 -8.950448705812912 0 0 0
1165 1 6.005564321446286 -12.97580442720898 -12.482685361597131 0 0 0
1062 1 5.287762424873179 -12.355652654889148 -9.83945626404001 0 0 0
1184 1 3.7668325825511992 -10.346751753447904 -9.279893833705092 0 0 0
1322 1 6.633599141826295 -10.249396251954835 -12.970455306506262 0 0 0
1169 1 5.7321415812452905 -9.488235854529105 -10.40761618272916 0 0 0
1167 1 7.309302021754295 -11.507771747289496 -10.909604079329018 0 0 0
1354 1 3.3130695344450345 -12.538353538827378 -13.521915147967755 0 0 0
1061 1 4.047094233123495 -13.73089281745537 -11.364270999103466 0 0 0
1064 1 6.450567016416009 -10.75262822143398 -8.394412308026972 0 0 0
1320 1 7.994339460686486 -12.088518718747043 -13.662316743394685 0 0 0
1182 1 6.601112021750652 -14.162852668300392 -10.521826346111046 0 0 0
1321 1 7.743167518057188 -8.74549106663389 -11.485108940799021 0 0 0
1156 1 8.554463110076178 -10.021255757654181 -9.552686068176163 0 0 0
1288 1 13.548491378262419 -13.023265162533342 -11.645378973572294 -1 0 0
1141 1 13.438795619609984 -9.472007465882584 -9.66369646024526 0 0 0
1152 1 10.66622181121544 -12.56993566022779 -12.665932092702022 0 0 0
1153 1 12.67625626571434 -12.177797290290354 -9.124948234044997 0 0 0
1166 1 8.676691032461214 -13.367182313703887 -11.585751172593639 0 0 0
1304 1 9.334506736303815 -10.602443419015923 -12.04539990841602 0 0 0
1735 1 11.386291725978928 -13.71144815343479 -10.522285488022263 0 1 0
1305 1 12.056824974375935 -11.098041566461692 -11.196643559084327 0 0 0
1170 1 9.947984613333762 -11.781179950445795 -10.08729150611342 0 0 0
1278 1 11.457644060296897 -9.853836080218574 -13.125075033982753 -1 0 0
1154 1 10.777102947386375 -9.131139210547868 -10.557039509503765 0 0 0
1155 1 11.479320677220578 -10.402484786701786 -8.464906746172016 0 0 0
538 1 12.8228385445852 -11.818635641033048 -13.751692688778162 0 0 1
1422 1 -9.757994881238105 -5.017172653535962 -12.338039083006848 0 0 0
1440 1 -10.428463033919417 -7.810970203279453 -11.762056625149777 0 0 0
1441 1 -11.769462104876586 -5.777434630123732 -11.351919558226825 0 0 0
1280 1 -10.582856055191158 -4.422151117524459 -9.648515882294276 0 0 0
1439 1 -13.209623338698586 -7.3471873331036175 -12.75266961792761 0 0 0
1454 1 -13.367963926242115 -3.8898767320506398 -10.723933643071142 1 0 0
1598 1 -12.575052124466266 -4.559557264300546 -13.375865622668792 0 0 0
1282 1 -12.725119865567411 -5.093221914424769 -8.559863545328533 0 0 0
1425 1 -9.177015034179423 -6.292351702575681 -10.102890187419629 0 0 0
1264 1 -11.193183944776841 -6.943074196985603 -9.049469164742385 0 0 0
1424 1 -8.668757442238007 -3.5583670409221764 -10.736980712862508 0 0 0
184 1 -8.346996997604275 -6.9641639673095055 -12.885867527434268 0 0 1
1600 1 -11.177711004724967 -3.131567189845015 -11.697694505177871 0 0 0
1265 1 -8.73844719293088 -7.587355886675291 -8.14317952482526 0 0 0
1232 1 -5.248372358152093 -8.780439025145242 -9.938480110474844 0 0 0
1421 1 -7.796823725126197 -8.32954198018827 -10.918122769684704 0 0 0
1423 1 -6.821128445099002 -6.819211771829098 -9.380890356226224 0 0 0
1582 1 -7.09381974213043 -5.484086002293694 -11.411255189076414 0 0 0
1406 1 -5.799703584901675 -7.447003828188416 -11.95582731630147 0 0 0
1407 1 -4.7270532946527535 -5.921280838198653 -10.522038141583188 0 0 0
1408 1 -6.022418892790014 -3.8608477202753004 -9.898938498199703 0 0 0
1566 1 -5.12862256910458 -4.577563130230999 -12.559738743874908 0 0 0
1549 1 -3.657226588468802 -6.558269808504654 -12.950237437544954 0 0 0
1234 1 -3.6563195439502643 -4.384520767222167 -9.182066886220566 0 0 0
171 1 -7.859209141907702 -4.237011628591684 -13.458440657195421 0 0 1
167 1 -3.0826816176260152 -3.5862117772910462 -13.558341888450789 0 0 1
1251 1 -8.036317377172248 -4.665220763099313 -8.828597977795162 0 0 0
1389 1 -3.030420055748401 -7.62516837183081 -10.896756304774186 0 0 0
1219 1 -4.120164240890588 -7.300284472072422 -8.469595149923185 0 0 0
1063 1 2.286252795526412 -8.423806207255195 -8.83299620345386 0 0 0
175 1 -2.270058991302438 -8.407338777819753 -13.469191984668914 0 0 1
1550 1 -2.541644192343515 -4.984629872023826 -11.492630641743249 0 0 0
1390 1 -1.8922938857272058 -5.999405848167495 -9.401314085702099 0 0 0
1372 1 1.8627395906907473 -7.1376110616437956 -10.792857449649695 0 0 0
1373 1 0.2416876550476328 -5.431911685565085 -10.478411068480735 0 0 0
1375 1 -1.1910875426853664 -3.3840324453642037 -10.148782306750476 0 0 0
1533 1 -0.3277950811529493 -4.097227009739241 -12.540960229134757 0 0 0
1357 1 2.3371733035704985 -4.4884967581647714 -11.40571802718308 0 0 0
1532 1 -1.0385366977278814 -6.928136377631419 -11.92027448092902 0 0 0
1356 1 1.5364815989556 -3.662665169339686 -8.848216093018644 0 0 0
165 1 1.2595727830864458 -6.035197105017758 -13.068127534905978 0 0 1
1358 1 -0.256627272768851 -8.040608335852983 -9.817316406952989 0 0 0
1517 1 1.7791598633510564 -3.2743522581930815 -13.570423667130532 0 0 0
344 1 2.6679775326084467 -7.965765695941941 -13.48107321260374 0 0 1
1187 1 1.0361593079326745 -6.359796892972484 -8.439756449476619 0 0 0
1200 1 3.050681413102751 -5.573285436813835 -9.281707978642611 0 0 0
1339 1 5.226607842959055 -8.53346833169715 -12.511265389426342 0 0 0
1516 1 3.8117447347200297 -6.360487920185363 -12.047768622522376 0 0 0
1340 1 4.470818221778966 -7.609272060561541 -9.821533509267741 0 0 0
1341 1 5.162064888156724 -4.84716987561646 -10.415325680995247 0 0 0
1500 1 6.52968967028626 -6.782668669256314 -10.964511178356048 0 0 0
1501 1 4.38658286091097 -3.6529704026535317 -12.51158136317957 0 0 0
1324 1 7.177119557371061 -4.053786546825297 -11.403462464963422 0 0 0
1325 1 6.426568849998013 -3.3047262029418807 -8.959865759328855 0 0 0
1323 1 7.845105801087584 -5.259998536214486 -9.395739585749297 0 0 0
327 1 5.885053243329985 -5.403257905171294 -13.135596367588814 0 0 1
1171 1 7.251483255389381 -8.061182700251019 -8.980159489659805 0 0 0
326 1 7.302567922382405 -7.586018585137232 -13.588332534067048 0 0 1
1342 1 5.823883964669626 -6.15426348605668 -8.288892245524446 0 0 0
1142 1 -13.82584875019075 -6.551128761292491 -10.263409395424597 1 0 0
1484 1 8.52761875203305 -6.01852255154501 -12.044932006269558 0 0 0
1291 1 12.73441303109389 -8.235841978257245 -11.640513386812641 0 0 0
325 1 9.955042080300451 -7.985314711041014 -12.701612528407416 0 0 1
1306 1 11.196750144612551 -6.347205287070333 -11.154269553459455 0 0 0
1308 1 9.857294485152256 -4.326688324775674 -10.475491930386571 0 0 0
1468 1 12.52716906698021 -4.758765639279684 -9.653316663305016 0 0 0
1469 1 13.231535855507047 -5.519607845785714 -12.201434669029796 0 0 0
1470 1 11.889955362883615 -3.564652966717439 -11.693187012063072 0 0 0
1307 1 9.267540434230625 -7.13721138594837 -10.029046756506483 0 0 0
307 1 10.622208688346703 -5.174719100025918 -13.205302954867802 0 0 1
1311 1 10.572985676299115 -5.734269020543833 -8.481325721253718 0 0 0
1143 1 12.035295587337984 -7.638614014805521 -9.041659224916128 0 0 0
1485 1 9.174742344599757 -3.3078903052636086 -12.701260983477031 0 0 0
518 1 12.053114768964424 -7.197643273021678 -13.795213461063751 0 0 1
1583 1 -9.27483709021682 -2.226613086576643 -12.883332248411365 0 0 0
1585 1 -9.944867316449995 -1.574121817410541 -10.116713481602632 0 0 0
1601 1 -12.58860222404364 -1.1754388415895018 -11.24838520016957 0 0 0
1729 1 -11.923941298495418 1.6060091137197645 -11.75291957728833 0 0 0
1716 1 -9.323805193364148 1.2775326608793272 -10.834525494689714 0 0 0
1443 1 -12.030344062991146 -2.4139202553729913 -9.195809406581922 0 0 0
1602 1 -11.379473768730103 0.3787508208799295 -9.743070931970886 0 0 0
1727 1 -10.481767529220745 -0.3109053027097861 -12.25500468955123 0 0 0
1586 1 -8.866446709364705 -0.03466379417263177 -8.558017125429974 0 0 0
1294 1 -13.450223069372763 -0.4028753167420618 -8.609318745803098 1 0 0
1610 1 -13.402608312821567 0.09106713175201797 -13.274411963278478 1 0 0
1603 1 -12.830547392286038 2.2834400631385012 -9.200346417588399 0 0 0
1714 1 -8.571992200794234 0.4591166061107472 -13.259127972772143 0 0 0
1715 1 -9.984886129619312 2.5123598272888454 -12.823534318835833 0 0 0
1599 1 -11.921411755368432 -1.913981455584704 -13.797223795422886 0 0 0
1551 1 -3.8468563210453866 -2.9803234592923413 -10.896158793194177 0 0 0
1567 1 -6.7532153719955295 -2.6713538160318873 -11.934692376151627 0 0 0
1584 1 -7.946696393315167 -0.7058286622422862 -11.198595797270771 0 0 0
1426 1 -7.274711405566791 -1.9013701221556119 -9.186940340181634 0 0 0
1568 1 -5.261823824159016 -1.051325888044559 -10.283267753956277 0 0 0
1569 1 -7.205937535416521 1.993580514880266 -11.821626418286556 0 0 0
1701 1 -5.928820976752027 0.10598596844985941 -12.504891929096054 0 0 0
1553 1 -4.541956449534371 1.6113729113616166 -10.928054869898249 0 0 0
1688 1 -3.1534088733568097 -0.41876685324885976 -11.46541290956172 0 0 0
1703 1 -6.694879208725977 0.8034573275252104 -9.838701259154174 0 0 0
1570 1 -3.8998403946639275 0.5354455245632437 -8.776220495991332 0 0 0
158 1 -4.596655914306922 -1.88250074495547 -13.00316720121339 0 0 1
51 1 -3.8951585370895785 0.8994054866011503 -13.291595416773577 0 0 1
1409 1 -4.686323089399702 -2.2612944387146623 -8.284824914930635 0 0 0
1391 1 -2.5267924567844524 -1.4320771231564215 -9.182909284871542 0 0 0
1534 1 0.8841579555662307 -2.5534521104178047 -10.92105177313357 0 0 0
1539 1 -1.8814250179042205 1.2783558575648595 -9.865107222162274 0 0 0
1535 1 -1.8284261543022406 -2.157698338803531 -11.971257482354556 0 0 0
1552 1 -0.47017466816950204 -0.509812948705509 -10.473293377137825 0 0 0
1519 1 1.525024854231015 0.2771367454621938 -11.433415445152304 0 0 0
1537 1 0.8412106375151414 0.9737498003387302 -8.706435299226728 0 0 0
1675 1 -1.076328512369237 0.6695091818646741 -12.379467473187963 0 0 0
1520 1 2.1807894323105295 -1.0500826494688944 -9.329559359996814 0 0 0
1665 1 0.20958660510684268 2.223632880275032 -10.838157698943665 0 0 0
154 1 0.2998687726473275 -1.3441905309629085 -13.080708352709836 0 0 1
142 1 0.8276700486751221 1.4033639575675974 -13.498803449689708 0 0 1
1359 1 0.09867540509711148 -1.7767903278648678 -8.382387416003706 0 0 0
1521 1 2.841121551909346 1.6880506923723502 -9.871581683821582 0 0 0
310 1 6.4637668918644025 -2.769556297087341 -13.529743110803482 0 0 1
1343 1 3.590266040567709 -2.9808435853736555 -9.867939621205183 0 0 0
1518 1 3.1019357983947593 -1.7666632765208856 -12.008128245183034 0 0 0
141 1 3.702901054036076 0.9939386500087775 -12.452663600017791 0 0 1
1505 1 4.237799103446285 -0.14409761672521526 -10.477575806437525 0 0 0
1502 1 5.646382470415599 -2.1004682070194587 -10.931166547911833 0 0 0
1489 1 7.043588513823266 -0.5410656158513252 -9.473882312902504 0 0 0
1635 1 7.794951071452715 -1.343761929974253 -12.085667395889914 0 0 0
1636 1 6.458941418018824 0.6522867937985541 -11.45522817495091 0 0 0
1650 1 5.586006433754182 1.4858036830058587 -8.98152639253825 0 0 0
1639 1 7.612775521861067 2.1608127433229907 -9.964572860619233 0 0 0
1648 1 5.1621078124038355 -0.7925685491861927 -12.971620927884066 0 0 0
126 1 5.803249147003896 1.8643724810226576 -13.63703586817644 0 0 1
1637 1 8.453921197154312 1.5263339355946286 -12.543173180082038 0 0 0
1486 1 8.35365094045681 -2.4770967034738085 -9.915052256310496 0 0 0
1652 1 4.943401032820503 2.5788840465306198 -11.049329378584764 0 0 0
287 1 13.936545802916022 -2.5304511919325883 -12.700462003075199 0 0 1
1310 1 11.10948755355897 -2.8857834565852976 -9.021616250563163 0 0 0
1456 1 -13.952553801795794 0.7393589540054393 -10.594403241069177 1 0 0
1488 1 9.065771679063193 0.22741720735585957 -10.453433743523926 0 0 0
1293 1 13.163368263034226 -1.9156513338168875 -10.106185607521043 0 0 0
1471 1 11.77591605939936 0.03672278631199255 -9.432680175212187 0 0 0
1622 1 10.420975266625675 -1.6251595925582496 -10.995958496348017 0 0 0
1455 1 12.593761860313933 -0.7416699297648766 -12.037835615085326 0 0 0
1473 1 10.43555012186641 1.9090376212695457 -8.897485611406463 0 0 0
1623 1 11.105429328026077 1.1110249511622428 -11.57615700272773 0 0 0
1611 1 13.201442767972967 1.8581104946133191 -12.611868289714604 0 0 0
289 1 9.763926954690312 -0.4580062788550574 -13.085241033789305 0 0 1
1312 1 9.784507590223107 -0.9186075504059961 -8.449760628227862 0 0 0
269 1 10.481496431664983 2.2148416334453227 -13.654850979287248 0 0 1
308 1 11.23132868535675 -2.293073497457449 -13.712606896789143 0 0 1
1717 1 -10.783303796099187 3.2165493203598796 -10.250856923485172 0 0 0
1719 1 -8.804564847468907 7.407053705649835 -9.083881348789161 0 0 0
1731 1 -12.074931487701173 5.1389323298635095 -9.789033828405076 0 0 0
1814 1 -11.403384169222434 4.540159431657836 -12.478869055260537 0 0 0
1807 1 -10.087095289230575 5.868787938594034 -10.749307348070325 0 0 0
1704 1 -8.648487734498914 3.900398900873496 -11.236500776168247 0 0 0
1736 1 -12.834394449462792 6.365918495936908 -11.689064674185417 1 0 0
1860 1 -10.832143053613674 7.186328664181191 -12.777281844819395 0 0 0
1589 1 -9.518232984067764 4.66849654441946 -8.527311592719373 0 0 0
1730 1 -13.458371631258025 3.5533713025275215 -11.21300313432303 0 0 0
1815 1 -11.59022435508847 7.816340446069864 -10.101437835887653 0 0 0
53 1 -9.408747684207867 5.1419636561855295 -13.233654879476505 0 0 1
1616 1 -13.572117798319228 7.017150344844781 -9.004301905077938 1 0 0
48 1 -8.770469657663199 7.982419798726076 -13.727754007194543 0 0 1
1587 1 -8.03497785794475 2.7511418543330226 -9.129909406152308 0 0 0
1689 1 -5.1994913276391515 3.016703177354122 -12.945912851541216 0 0 0
1799 1 -8.066377383366639 6.655800886641741 -11.839647966154589 0 0 0
1690 1 -3.265763497119753 3.1696932071552144 -9.161899832082458 0 0 0
1718 1 -7.398055214494136 5.408196086031166 -9.784565888703774 0 0 0
1790 1 -5.993004462437296 7.5154421105476015 -12.70027228580884 0 0 0
1691 1 -3.8600315885116725 4.411372545402854 -11.280026485863315 0 0 0
1693 1 -5.376795339759369 6.242819560085644 -10.747064084194712 0 0 0
1798 1 -6.623743279140653 4.8356287330165255 -12.258334029994595 0 0 0
1791 1 -3.2792265998643018 7.192695666500532 -11.83130192555622 0 0 0
1705 1 -5.833031483738067 3.4657310396662897 -10.247023095586469 0 0 0
1557 1 -4.765472475372892 5.12413082533511 -8.711070088260435 0 0 0
1694 1 -4.0889377352051 7.891014500123843 -9.258831923445385 0 0 0
1789 1 -4.4770617690411605 5.628063844488819 -13.333956004957694 0 0 0
1676 1 -2.422962134997377 2.5343129338065697 -11.984510730371113 0 0 0
1680 1 -2.58124136472866 6.029742807186027 -9.780993374643064 0 0 0
1653 1 2.3415305788811374 2.9028967123158917 -12.106152523200022 0 0 0
1677 1 -1.3318707570938422 4.007366899459052 -10.389859922010231 0 0 0
1678 1 -1.8444615689268815 5.262427127870451 -12.426750803229352 0 0 0
1523 1 1.5488520544233406 3.6853279031567876 -9.300442205904602 0 0 0
1782 1 -0.5640998434208555 6.755364116393567 -10.943482788528074 0 0 0
1666 1 0.8535434369957322 4.840698648454856 -11.417375595629819 0 0 0
1773 1 1.4968535670521295 7.6545523043508386 -11.852592516514429 0 0 0
1679 1 0.062343751257397884 5.51647589792322 -8.869453553818445 0 0 0
1668 1 2.1797869152781963 6.436594886925311 -9.722488608596999 0 0 0
143 1 -0.39149039622262016 3.3080140487378014 -13.073243471934822 0 0 1
1780 1 0.1659093427676943 6.049268943056033 -13.5371571263571 0 0 0
1781 1 -1.2394937439545224 7.987802862131785 -13.039342442178159 0 0 0
1664 1 2.924827968660356 5.670324624444911 -12.418156730119444 0 0 0
1540 1 -0.5129951379779527 2.8740389989014954 -8.325602391387807 0 0 0
1667 1 3.4558167808241294 4.397366977664012 -10.461755885659752 0 0 0
1638 1 7.0713416112416745 3.3365238689670935 -12.035972617764067 0 0 0
1640 1 5.648880507185726 5.2081203191863725 -11.412926849223574 0 0 0
1764 1 4.102546021720624 7.325507299412683 -10.981085016545293 0 0 0
1754 1 7.6831335983767275 6.168420720769097 -12.462268763455713 0 0 0
1756 1 6.917521842766597 6.9073548811099865 -9.884539536088269 0 0 0
1654 1 4.83888703721243 6.106824020010633 -8.851567071371358 0 0 0
1649 1 4.222616391651098 3.725058931094475 -13.138186365197843 0 0 0
1491 1 6.289535840563207 4.245898956222172 -9.388992406965642 0 0 0
1651 1 4.976611357257241 6.5279572676242115 -13.568388356089173 0 0 0
1507 1 4.180474677773308 3.436941977467141 -8.282541852836154 0 0 0
1627 1 8.323912280679586 4.929868299465257 -10.608722955035837 0 0 0
1655 1 3.3369165990933887 8.033741326622776 -8.387458100076003 0 0 0
1762 1 6.291976158774315 7.992682794127822 -12.014982894099251 0 0 0
1624 1 12.526379266970697 2.6535166110424395 -10.054444376026094 0 0 0
1728 1 13.736126136750055 4.662180847180663 -13.13010291610752 -1 0 0
1625 1 9.729706238807562 3.088802227122029 -10.94952430792771 0 0 0
1741 1 9.011899758385567 7.636711492893932 -11.0974490975665 0 0 0
1748 1 9.552666220534313 6.441016461909934 -8.890451488944052 0 0 0
1614 1 13.004230419327758 5.439827397304606 -10.534374194230292 0 0 0
1626 1 11.006303101070745 4.56905987622183 -9.48574330336415 0 0 0
1745 1 11.840473406921003 3.713461746108303 -12.123574303954662 0 0 0
1746 1 10.399179883237302 5.58829880170971 -11.526466779074791 0 0 0
1739 1 12.393964189974529 6.577301139861918 -12.676028139315456 0 0 0
1742 1 11.621010621627885 7.371641731919018 -9.991560271770695 0 0 0
110 1 9.127727895835381 4.082333787722815 -13.13169039984303 0 0 1
1612 1 13.712897204982589 4.211122296545577 -8.605483360828218 0 0 0
1475 1 8.965460519502304 3.839343401946353 -8.486916547004155 0 0 0
1747 1 9.7658484376454 6.938725492510629 -13.630687760509371 0 0 0
1809 1 -9.40552215548789 8.482722715517633 -11.195923037402045 0 0 0
1856 1 -12.204377479080463 8.90304776588743 -12.138208970800266 0 0 0
1708 1 -10.279737243439952 9.367404292058099 -8.724149591874653 0 0 0
1810 1 -10.817149732405554 10.564203934597645 -10.720466909318102 0 0 0
1857 1 -11.521187116470799 11.733667467598282 -12.773540346560766 0 0 0
1859 1 -9.63485538636523 12.119491297663648 -9.132788800364214 0 0 0
1812 1 -12.938676836344639 9.673050885009841 -9.52799715062657 0 0 0
1724 1 -12.29120333938118 12.412710632880382 -10.117875071800965 0 0 0
1275 1 -10.210639698161327 13.382146669031046 -11.16393159392868 0 -1 0
1853 1 -8.833505089423468 11.363216882588228 -11.804252725691711 0 0 0
1802 1 -10.137379083617702 9.865605967114186 -13.21519868328944 0 0 0
1858 1 -13.586235955992867 10.880950604275286 -11.543660952430828 0 0 0
1274 1 -12.870405163748776 13.710771456752672 -12.104796280605669 0 -1 0
1852 1 -9.51419736753866 12.519054237846754 13.645630522417212 0 0 -1
1801 1 -6.795782885604402 8.225303919753282 -10.172368712571956 0 0 0
1803 1 -8.247708792309222 10.315124837159571 -9.76128794111121 0 0 0
1800 1 -7.3832683532417605 9.457398312363589 -12.23874723991034 0 0 0
1792 1 -4.7258648694489 9.094895539854202 -11.253920158878202 0 0 0
1794 1 -6.097323265946092 11.074707019673435 -10.69737113275254 0 0 0
1848 1 -4.091066885388093 11.640168620427017 -11.794197260267524 0 0 0
1785 1 -3.3786865412141083 10.522012832483904 -9.777005107492105 0 0 0
1695 1 -5.488313134601757 9.853364087017843 -8.636580948182374 0 0 0
1107 1 -4.757673310738582 12.530232096355748 -9.17316054149174 0 -1 0
1854 1 -7.588210574419345 12.971887111188648 -10.177528198948254 0 0 0
1849 1 -6.8996070404899 12.15540385139588 -12.809392201581776 0 0 0
36 1 -5.444201378292892 10.27922805965798 -13.405562122016322 0 0 1
1230 1 -5.585922155790097 13.782010085807213 -11.266041828067122 0 -1 0
1850 1 -2.7833727303992415 13.39019711543253 -10.33338515511179 0 0 0
1847 1 -3.963303937090579 8.392222274516216 13.727638241895027 0 0 -1
1783 1 -2.7648448656500744 9.82890061520691 -12.336170479050375 0 0 0
1784 1 0.677072017741823 8.346828060948832 -9.352964248191807 0 0 0
1793 1 -1.8700632756761095 8.745191675727002 -10.251400862004107 0 0 0
1838 1 0.627638602821408 12.414639567982531 -11.9945553443958 0 0 0
1774 1 0.023121159028333338 9.535838586457343 -11.455732616330687 0 0 0
1844 1 -1.4342731569278335 11.49591277296989 -10.877769373953077 0 0 0
1776 1 -0.7330014089806411 10.374718046375365 -8.82321167546593 0 0 0
1840 1 1.281194023334713 11.107679211820665 -9.950312677376134 0 0 0
1843 1 2.099259629171531 10.29626843287175 -12.571508074697034 0 0 0
1834 1 -0.1357489049298639 12.994082905301562 -9.369021953856834 0 0 0
1841 1 -2.0054308363897704 12.671748746324733 -12.877959877909571 0 0 0
1839 1 -0.7011203595006474 10.783686505986475 -13.513724135515233 0 0 0
1183 1 2.7704916153977663 13.19028719802436 -13.086343077664127 0 -1 0
1765 1 2.7857219562774027 9.192158714352024 -10.407186212288329 0 0 0
1771 1 3.4112940335692663 8.491371128655219 -13.05048855412681 0 0 0
1772 1 3.4358531150844875 11.910908098595838 -11.051300714176786 0 0 0
1767 1 3.9486136271655283 10.686645426855074 -8.812444092663373 0 0 0
1763 1 4.728284959608196 10.016220164631827 -11.44071800559111 0 0 0
1757 1 7.465019942514903 9.625333466575922 -10.428415789836148 0 0 0
1829 1 6.675760702742682 10.727286678943782 -12.634697407675807 0 0 0
1835 1 6.020588730219696 11.53269365846238 -10.021523301178137 0 0 0
1766 1 5.480579228114156 8.719335662651174 -9.261643057135483 0 0 0
1197 1 5.316922166925277 12.644468773632246 -12.003535696823125 0 -1 0
1831 1 8.09877677624592 12.398398360999616 -10.897543789766194 0 0 0
1837 1 4.584957747118555 13.421528563940795 -9.376822342129977 0 0 0
1833 1 4.119564774299523 11.075935242664974 -13.6390347110791 0 0 0
1755 1 8.25783006674564 8.867450343736765 -13.03387449921375 0 0 0
1826 1 7.5143307848654075 13.525738328763337 -13.047060220283031 0 0 0
1629 1 8.130675437152298 8.43862607361041 -8.364852249312658 0 0 0
1832 1 7.288344212563025 13.149700992720456 -8.360882513934722 0 0 0
1740 1 13.620040037436912 8.136308635687149 -11.162156178096021 0 0 0
1821 1 11.006752519772181 8.503997597848945 -11.981913249263325 0 0 0
1830 1 8.765927380425925 11.236738186267592 -8.951978391004339 0 0 0
1749 1 10.204495193212463 9.2403979468487 -9.47169588394007 0 0 0
1824 1 9.560297045006969 10.473383323628473 -11.444866346154376 0 0 0
1861 1 10.144634639855006 13.122505107916384 -12.173604075668095 -1 0 0
1822 1 12.232709002990212 10.111173497669563 -10.559743907491283 0 0 0
1864 1 10.71336552254986 12.037103520368676 -9.854478390182305 0 0 0
1870 1 12.888318621633228 12.856792061294128 -11.029016588546806 -1 0 0
1863 1 11.55295874256079 11.243238608949314 -12.694948793766585 0 0 0
9 1 12.86382071469334 9.432326480600098 -13.396269543000171 -1 0 1
1817 1 13.503846949888125 11.604510021221477 -8.94273098714083 -1 0 0
1031 1 12.157681801043331 13.553053528881948 -8.439000570401294 0 -1 0
1608 1 12.87215917622511 8.83182816156557 -8.480190036536253 0 0 0
76 1 8.923595497333341 11.6392554878748 -13.698340558082425 0 0 1
1303 1 13.628577161466648 12.173061463938074 -13.551280791670392 0 -1 0
1804 1 -11.02666543296406 13.976222630761646 -8.476251180894906 0 0 0
1868 1 -8.129912168443997 14.13477743533471 -12.190944014645169 0 0 0
1836 1 1.9103366552912373 13.836513071520828 -10.39193498991251 0 0 0
1214 1 -0.7232180022555834 -14.182019015166732 -11.476249346244952 0 0 0
1827 1 9.41622747943423 14.018550776691677 -9.48092504827341 0 0 0
1140 1 12.188955635400568 13.954033530886234 -13.13207076970102 0 -1 0
1130 1 -12.497122975685938 -12.565644831584253 -8.006375491616598 0 0 0
1120 1 -9.185534762683792 -10.250250401705475 -7.589962782859693 0 0 0
1132 1 -11.369566876034897 -10.905582248131134 -6.510376006318606 0 0 0
1121 1 -9.989956433615458 -9.515667858094092 -4.810089657194611 0 0 0
1025 1 -10.627727534985706 -12.203131450218983 -4.364439011600318 0 0 0
1119 1 -9.858562259040026 -12.872413153291705 -7.0134765878020815 0 0 0
1581 1 -12.624917918633411 -12.99360337253647 -3.2177771652032483 0 1 0
964 1 -12.034986894302643 -10.147600441335776 -3.916766860835997 1 0 0
1134 1 -12.72497179756268 -9.046742717260893 -5.99247966229418 0 0 0
1139 1 -13.382141903456978 -11.756567318142723 -5.463385397904355 0 0 0
1018 1 -9.226028691772427 -10.645147646496035 -2.771914534404818 0 0 0
1017 1 -11.912080753778753 -13.644331806220634 -5.904276854251608 0 0 0
1016 1 -9.184370674074142 -14.03601831405988 -4.981428958326994 0 0 0
1010 1 -8.541893414758405 -11.394284415412912 -5.532771419066568 0 0 0
1032 1 -13.887819982693387 -10.565193178685726 -7.585630068158963 1 0 0
1109 1 -7.801011135265815 -12.065844898913229 -8.065588056411691 0 0 0
1098 1 -2.962004116735015 -11.644427443430265 -8.210980316231371 0 0 0
1100 1 -4.4278191675674226 -9.782159193427805 -7.763571296007828 0 0 0
955 1 -7.960558540368153 -12.507489340853013 -3.3160928398375535 0 0 0
1004 1 -5.042988624310645 -12.43167873771356 -7.157688228652585 0 0 0
1110 1 -6.432980804203479 -10.565027996942861 -6.497295568922281 0 0 0
1012 1 -7.416843130214548 -9.802300386216533 -4.034743599064193 0 0 0
1805 1 -7.132554977237316 -13.320517936429116 -5.997019825286068 0 1 0
1011 1 -5.770874897640116 -11.730406152740112 -4.4133173123487435 0 0 0
1099 1 -4.464453506275365 -10.144674490376222 -2.970979926648228 0 0 0
1003 1 -3.0704839794586185 -12.11545670550421 -3.4877704902325934 0 0 0
1087 1 -3.6770400106311794 -10.914704948950261 -5.606873112596324 0 0 0
1101 1 -5.302904254077541 -9.056367348133907 -5.084914694147004 0 0 0
1009 1 -4.33534006921821 -13.693086021650307 -5.058286529321304 0 0 0
999 1 -2.502992507489422 -9.261499526203568 -4.110421738705504 0 0 0
1076 1 0.34921300111483333 -9.166497223614126 -7.822652076874092 0 0 0
1086 1 -2.38489479710975 -12.802999795404045 -6.066094330238717 0 0 0
1097 1 -0.3399889745511633 -11.984140074976352 -7.115108236674799 0 0 0
997 1 -1.1717757643504267 -11.184784534138993 -4.585520410621079 0 0 0
990 1 0.3661937783143987 -9.693611856947495 -3.001715058114941 0 0 0
988 1 0.369510101896358 -13.194998243567706 -5.073723348590544 0 0 0
1769 1 2.376914148422827 -12.342931990476808 -6.031503101116888 0 1 0
1077 1 0.8862201749994583 -10.367011564101286 -5.648113170810946 0 0 0
1075 1 -1.5695466125976303 -9.855324329603945 -6.624640565979442 0 0 0
989 1 1.683870868457383 -11.55390948730402 -3.554287772021354 0 0 0
1084 1 1.1333155376741573 -13.892794737503074 -7.76854564431058 0 0 0
995 1 -1.6865185174212538 -13.94991282645252 -3.9929170713026743 0 0 0
1067 1 2.403734193053655 -8.703999328141357 -4.039827599968389 0 0 0
1770 1 3.1143171403108703 -13.559360649181615 -4.082452445694964 0 1 0
1761 1 5.761719573160331 -13.49656047764965 -7.76418489731389 0 1 0
1065 1 3.111605623641573 -9.515106898042106 -6.728342757328604 0 0 0