LAMMPS data file via write_data, version 2 Aug 2023, timestep = 0, units = metal

1863 atoms
3 atom types

-14.202104243226435 14.202104243226435 xlo xhi
-14.257331029156138 14.257331029156138 ylo yhi
-13.460059385138726 13.460059385138726 zlo zhi

Masses

1 55.847
2 1.008
3 1.008

Atoms # atomic

23 1 -13.60354107845948 -12.544096205470483 -12.682975078115996 0 0 0
25 1 -12.545515580041368 -12.448985910742577 -10.476414256427447 0 0 0
28 1 -10.699972307793345 -12.088339485527005 -12.188558593248569 0 0 0
346 1 -9.05163423656723 -13.94116502202043 -12.15139991900099 0 0 1
37 1 -6.193375438551234 -13.5224734521514 -11.414985526578494 0 0 0
33 1 -7.87181181430834 -11.751418077413087 -11.416154228746615 0 0 0
11 1 -6.064573295288934 -11.322190250556215 -13.0054858682419 0 0 0
19 1 -3.417461403568497 -13.104805724754934 -10.631906822411032 0 0 0
306 1 -4.30033105961294 -13.17929565727069 -12.980476686269062 0 0 1
14 1 -5.018994166263548 -11.267793913869706 -10.708842795971295 0 0 0
20 1 -1.5282921059989807 -12.94715246224049 -12.323836542437004 0 0 0
26 1 -12.28131099390438 -10.275365057021371 -12.277259771388433 0 0 0
1090 1 -14.135658843422203 -8.55196590571038 -12.348162900178949 1 0 0
1236 1 -13.805764946670607 -9.254205718348796 -0.03552672703408355 1 0 0
27 1 -9.60500592547472 -9.955816007764717 -11.569409007787147 0 0 0
32 1 -6.734484972988226 -9.597876511068174 -10.867991924672815 0 0 0
30 1 -7.790030595833344 -9.607431323367745 -13.094979266126 0 0 0
35 1 -4.869871001026013 -9.151504990222763 -12.594467047905459 0 0 0
40 1 -3.1923764501968748 -11.013981116707381 -12.309300272527047 0 0 0
36 1 -3.9077637693596685 -9.157945546801527 -10.141521790630314 0 0 0
949 1 -0.38415333261370144 -10.456870158510398 -11.696397795542302 0 0 0
177 1 -2.165838056588342 -8.843286214326113 -11.90184833289874 0 0 0
179 1 -12.73831296905562 -6.400299331503331 -11.682025954329653 0 0 0
49 1 -11.26745071558258 -8.128294004015336 -11.715810146041665 0 0 0
192 1 -10.043232519514898 -5.854182254510828 -11.205949361948663 0 0 0
172 1 -9.528684593319774 -7.762479622716495 -13.185641815902255 0 0 0
74 1 -0.04154999163932516 -8.893458794170865 -7.372396992447015 0 0 0
55 1 -8.430062083153949 -7.845941593221346 -10.939698013881793 0 0 0
173 1 -6.583223770026665 -7.4109224690143645 -12.601985330225206 0 0 0
61 1 -5.617704207288993 -7.422216663139534 -10.356745560769106 0 0 0
175 1 -3.884422358945205 -6.9821811232172095 -11.988996738852686 0 0 0
208 1 -1.0314348901233643 -6.753324692193014 -11.318807259613191 0 0 0
540 1 -8.174578515204713 -0.3711256700880341 -1.6055922359173636 0 0 0
214 1 -11.665943185386961 -4.110994971453392 -11.309626074411549 0 0 0
180 1 -9.870878062270585 -3.7979115578936984 -12.850925423900993 0 0 0
218 1 -8.858771798443275 -3.7119174285767347 -10.575735635645643 0 0 0
196 1 -7.297137048809378 -5.571777576035279 -10.47633805722524 0 0 0
195 1 -8.157944468981356 -5.674099654627572 -12.717809835128843 0 0 0
194 1 -7.12403999412646 -3.489742263145846 -12.237178478518908 0 0 0
200 1 -5.48438311861695 -5.2845144311229255 -12.051405789359718 0 0 0
199 1 -4.302716608326211 -3.019637312500837 -11.451785375853321 0 0 0
205 1 -2.675918566542853 -4.8661744641282905 -11.481821280376236 0 0 0
176 1 -0.9427149027310939 -4.584414035282137 -13.01821937644508 0 0 0
210 1 -13.414353305379572 -2.268036782088819 -11.172525997749085 0 0 0
212 1 -11.403614357587111 -1.9293191798979805 -12.978454808277057 0 0 0
190 1 -12.178959252146285 -0.10792074643673466 -10.805107645716646 0 0 0
165 1 -1.9630505792799635 -1.4904198323217859 -2.495825389307033 0 0 0
213 1 -10.60469829059178 -1.980062663939794 -10.61894445093677 0 0 0
216 1 -8.766469678049681 -1.601799446528151 -12.319299120211106 0 0 0
220 1 -5.835030936518811 -1.2651694951537813 -11.632259545140375 0 0 0
217 1 -7.650584191094118 -1.6169677615371914 -9.93126678595043 0 0 0
224 1 -3.1772777817607167 -0.9569062989793498 -10.911723553355667 0 0 0
197 1 -4.241965592784318 -0.9820584959034271 -13.302456243773376 0 0 0
204 1 -1.4480698005761852 -2.7151713611383776 -10.971715787692798 0 0 0
203 1 -2.5406262707096676 -2.7239075832171658 -13.173740505832939 0 0 0
202 1 -1.4278912158390789 -0.49592662215994565 -12.52758141829375 0 0 0
228 1 -0.3580387802657228 -0.511774010566338 -10.279108289560792 0 0 0
53 1 -11.4225379346343 -12.529395146783589 -8.253849955235626 0 0 0
29 1 -9.607343858318725 -12.246364511506245 -9.786827428283887 0 0 0
59 1 -8.704231143650185 -12.157054506044382 -7.596889565097244 0 0 0
34 1 -6.914794795563842 -11.811351635332937 -9.109186634209104 0 0 0
12 1 -8.076984473081993 -13.979072493640473 -9.803349192184488 0 0 0
518 1 -7.164989062876788 -13.940512558980249 -7.484110031390789 0 1 0
65 1 -5.977398871025986 -11.761413314229625 -6.8852947533887745 0 0 0
39 1 -5.264317195912669 -13.555606837309364 -9.073079606370024 0 0 0
66 1 -4.205334256977915 -13.534859106392968 -6.778733381297644 0 0 0
22 1 -0.5836547024568937 -12.779675908958545 -10.130751356036107 0 0 0
44 1 -2.3507575965025964 -13.20358674007308 -8.351657745676873 0 0 0
46 1 -12.931130359791288 -8.503882207779835 -10.113986166492811 0 0 0
47 1 -13.148444672131177 -10.745869097647468 -8.377585965938039 0 0 0
82 1 -12.058343882173293 -8.685237005381115 -7.77853156335865 0 0 0
51 1 -11.4519853220753 -10.413335563284416 -10.04952031931257 0 0 0
52 1 -10.374304577206257 -10.293694400091908 -7.811711288070455 0 0 0
57 1 -8.555653534707595 -10.052478791258892 -9.411592807095978 0 0 0
58 1 -7.632712896356758 -9.956185130649322 -7.095822902625511 0 0 0
63 1 -5.708754066745131 -9.778941734555112 -8.726480817405017 0 0 0
38 1 -4.0259378535852655 -11.517959132242135 -8.537110245295915 0 0 0
69 1 -2.8930458250788593 -9.220812025648907 -7.985232989291901 0 0 0
42 1 -2.1478991522416315 -10.845327521745219 -10.191797395131122 0 0 0
43 1 -1.2396483054682594 -10.950066422283967 -7.887553254215184 0 0 0
41 1 -0.9872425057490535 -8.729691671534907 -9.690996930853045 0 0 0
1031 1 -14.019723400585734 -13.287984544148191 -2.640543011345896 1 0 0
77 1 -13.629862824579957 -6.727687392419577 -7.844660431233026 0 0 0
80 1 -11.847675331941499 -6.326061392953408 -9.39952816677635 0 0 0
50 1 -10.228167967679475 -8.100413810906254 -9.366056616615838 0 0 0
81 1 -10.840097499737936 -6.336798900756414 -7.0985865227119085 0 0 0
88 1 -9.12640617978331 -5.878759539003669 -8.766264536647391 0 0 0
90 1 -9.213690542319503 -8.241401184854052 -7.1933505148931305 0 0 0
56 1 -7.468380152282712 -7.805156346961732 -8.785432218640713 0 0 0
62 1 -4.703199024955589 -7.495149648496219 -7.932505787930622 0 0 0
67 1 -2.8194461076952066 -7.025251551297638 -9.428308628827255 0 0 0
68 1 -1.7752459745217468 -7.146063609577379 -7.417868300843358 0 0 0
928 1 -0.005766872834463754 -9.459056941177568 -1.1326796804152668 0 0 0
116 1 -12.531928890251628 -4.568134885571151 -7.402590261068951 0 0 0
211 1 -13.404436826646316 -4.465988116019087 -9.675746337514886 0 0 0
215 1 -10.783140072860238 -4.060068055912145 -8.950980350539883 0 0 0
96 1 -6.250670642811336 -5.757349144031547 -8.084971729616147 0 0 0
222 1 -6.033610061094349 -3.403739004383368 -9.912709870387815 0 0 0
219 1 -7.852399087336514 -3.906995211467116 -8.232936396830311 0 0 0
201 1 -4.3788485386514076 -5.305260262960383 -9.822957146652513 0 0 0
104 1 -3.48633153481164 -5.32929466102043 -7.385950339034303 0 0 0
223 1 -5.043604078602884 -3.531691364742292 -7.460518664339751 0 0 0
226 1 -3.2813687716548703 -3.1063971027831645 -9.218328521522462 0 0 0
206 1 -1.6309853734543562 -4.977288736397529 -9.146758537426436 0 0 0
227 1 -2.272713422922159 -3.2102646314619054 -6.802424720101413 0 0 0
112 1 -0.669677072119093 -4.959696965690474 -6.899766019522519 0 0 0
1131 1 -14.050933030181787 -0.6324664469570678 -9.056043049129297 1 0 0
188 1 -12.329694399117507 -2.2881536354740817 -8.879107078352376 0 0 0
31 1 -13.032561807822871 -0.6571658369637774 -6.8171334839224205 0 0 0
187 1 -11.451197098302437 -2.401478015733307 -6.662912627256194 0 0 0
166 1 -0.9723477341266662 -1.4939061813671106 -0.24122789935275613 0 0 0
189 1 -11.17716108256077 -0.147611782379375 -8.327736055278496 0 0 0
185 1 -9.53657791219849 -1.9195619878303614 -8.40456065254266 0 0 0
183 1 -6.780658227193666 -1.7680414764426295 -7.641614791657291 0 0 0
221 1 -4.994633354156965 -1.3550328643422187 -9.341725977021476 0 0 0
181 1 -3.9629520142503676 -1.440703967664728 -6.967952949708988 0 0 0
229 1 -0.5849359559007716 -2.733892436751379 -8.544962052875787 0 0 0
225 1 -2.270908123968576 -1.0574526146614858 -8.60891730549962 0 0 0
48 1 -13.256356483707574 -12.926712275600384 -6.702931309733196 0 0 0
86 1 -12.42642766757674 -13.002858184468996 -4.4389537388787215 0 0 0
54 1 -10.558867145967168 -12.564717516089493 -5.985666572976146 0 0 0
94 1 -9.615894106525165 -12.608469703071627 -3.661338934154685 0 0 0
60 1 -7.772796860935977 -12.092888508150104 -5.345089749834527 0 0 0
607 1 -6.150862391837432 -13.974590700647534 -5.215124550291092 0 1 0
110 1 -4.908558627070594 -11.846572144601081 -4.659249312770935 0 0 0
464 1 -3.2494269364424504 -13.638483265816296 -4.441747283738422 0 1 0
71 1 -3.0623941021028607 -11.269898608078915 -6.264138597923656 0 0 0
45 1 -1.4161465740007575 -13.100630336036469 -6.092843342199696 0 0 0
76 1 -0.5755979964401998 -13.243685976069914 -3.8531259111997063 0 0 0
72 1 -2.236895427565834 -11.51785318282209 -3.962044914328466 0 0 0
84 1 -12.083190179785841 -10.782674441283888 -6.055732949879946 0 0 0
119 1 -12.886088718931045 -8.930525679418228 -3.8233925535943882 0 0 0
78 1 -13.896124509937163 -8.902792130301979 -6.247667355519277 0 0 0
120 1 -13.856008764626807 -11.023252810529945 -4.467819934194459 0 0 0
85 1 -11.222974469484512 -10.796505842422786 -3.856473841194857 0 0 0
92 1 -9.360707501940865 -10.358887447947444 -5.515326374664085 0 0 0
100 1 -6.524879839902722 -10.065041855679308 -4.8657251204618746 0 0 0
64 1 -4.6870760637917 -9.502640795090947 -6.3384868439744375 0 0 0
108 1 -3.9099304643277417 -9.708269902748587 -3.9532132997823055 0 0 0
75 1 -0.4064975830375932 -11.071597972432414 -5.548492679649442 0 0 0
70 1 -2.0902663810890445 -9.223064891320648 -5.721230114856454 0 0 0
118 1 -12.681789115110057 -6.854031309896192 -5.50859340318954 0 0 0
83 1 -11.012758309609392 -8.553768641518733 -5.538655996938783 0 0 0
125 1 -9.875088289473752 -6.380479392920513 -4.824513644301339 0 0 0
89 1 -8.11151260346481 -5.9955568497294855 -6.5299472229500575 0 0 0
91 1 -8.240199467017177 -8.197850336783752 -4.826769798315507 0 0 0
98 1 -6.427250419807053 -7.828530102163238 -6.3617925732323855 0 0 0
132 1 -7.151170528383556 -6.113599612695378 -4.238799125739874 0 0 0
99 1 -5.407271835224584 -7.917012104734522 -4.190314429455443 0 0 0
106 1 -3.612399863888511 -7.374822879505207 -5.730942442942657 0 0 0
113 1 -0.7806831033359583 -7.18587597359336 -5.184892876196157 0 0 0
107 1 -2.6307897509151186 -7.604582425598767 -3.5102219973479727 0 0 0
117 1 -11.515872840993957 -4.536586978945957 -5.038646169994696 0 0 0
149 1 -13.423760355109106 -4.9216534984029 -3.445634422467588 0 0 0
123 1 -9.713040358104443 -4.121604227911595 -6.584393700375244 0 0 0
124 1 -8.801958817640433 -4.197796028573967 -4.3247386569253035 0 0 0
130 1 -6.8803139030850184 -3.826714677780636 -5.8712742541327625 0 0 0
131 1 -5.956079784891244 -3.970790434724215 -3.6152935194955163 0 0 0
139 1 -4.341694470916773 -5.731241442278035 -3.563923485710866 0 0 0
97 1 -5.301333566547493 -5.649000628735658 -5.847206693920065 0 0 0
137 1 -4.095934265161892 -3.6212058727660548 -5.058935141696486 0 0 0
105 1 -2.4835796211429617 -5.498478233537774 -5.201522739175948 0 0 0
143 1 -1.2961943936865268 -3.3493845952183197 -4.634272148739077 0 0 0
148 1 -13.182977938122802 -2.728298336443139 -5.053056995668181 0 0 0
18 1 -12.105842860714306 -0.5762480134305985 -4.477353298377048 0 0 0
16 1 -9.203981798268442 -0.3606958204193287 -3.8652961597656113 0 0 0
153 1 -10.45059363568842 -2.416521507203141 -4.449190693274913 0 0 0
17 1 -10.219833145261731 -0.3308454277946655 -6.22293889834225 0 0 0
184 1 -8.515454225161438 -2.0323219885289117 -6.128131082970811 0 0 0
158 1 -7.593306625388372 -2.0962988241988203 -3.7305960952677903 0 0 0
182 1 -5.694044587321114 -1.7032605956973832 -5.349464098310758 0 0 0
169 1 -3.0291509638802747 -1.3564080406561665 -4.725709704414568 0 0 0
167 1 -0.27067857733949907 -1.16245980631005 -4.158482192335779 0 0 0
168 1 -1.1387363635796195 -1.0013040622437703 -6.433036214257994 0 0 0
258 1 -13.007631100039587 -13.287061861908905 -0.36837493561441725 0 0 0
129 1 -11.23466052537027 -13.066894118401624 -2.04806206150816 0 0 0
159 1 -6.547915238057376 -2.2119404926968045 -1.384019188613392 0 0 0
95 1 -8.673201310958664 -12.53680672032466 -1.3153335789974197 0 0 0
102 1 -6.896696862242424 -12.136958154158984 -3.06908198144013 0 0 0
103 1 -5.924908396019646 -12.085133887220987 -0.7983509810876672 0 0 0
615 1 -5.162155139278319 -13.971711411005163 -2.9717758025696117 0 1 0
111 1 -3.961710125351784 -11.898922353049741 -2.254242442120418 0 0 0
463 1 -4.223648518569236 -13.965804191263144 -0.6596402859687505 0 0 0
8 1 -5.485048857031872 -0.1114261329050148 -0.8829310139430557 0 0 0
645 1 -2.4145301553092455 -13.670137038840538 -2.171878606968935 0 1 0
115 1 -1.1358233705720373 -11.611092275460042 -1.796951024394863 0 0 0
162 1 -4.721597903880763 -1.8236430495738674 -3.0898094712513906 0 0 0
121 1 -12.967966923192474 -11.191630543402564 -2.2243094060048954 0 0 0
157 1 -11.931436232513768 -8.912969986695966 -1.5154227327498067 0 0 0
128 1 -10.294664576296793 -10.825684596132668 -1.5320729407612799 0 0 0
127 1 -10.12848921229579 -8.662885343463119 -3.18766850117294 0 0 0
161 1 -9.125480202695737 -8.59611132814528 -0.9432484514035195 0 0 0
93 1 -8.363761287899639 -10.308495098240137 -3.2378634656921967 0 0 0
136 1 -7.499820515825917 -10.210652047661942 -0.8610960386049396 0 0 0
101 1 -5.6879783171547285 -10.109575137787655 -2.5109731101673916 0 0 0
135 1 -4.6912390343630594 -10.019256241541136 -0.2549179688451382 0 0 0
163 1 -3.7528874814777122 -1.9553812171761749 -0.8647311557304018 0 0 0
114 1 -0.8875586731587859 -9.34062808960208 -3.501718180403728 0 0 0
109 1 -2.8376045008532067 -9.770588924335577 -1.8359788495733653 0 0 0
155 1 -11.680553787723145 -6.716550981095312 -3.2419666906830837 0 0 0
151 1 -13.561370162778067 -7.132269785982057 -1.845650103449687 0 0 0
126 1 -8.93197136515284 -6.397938460610542 -2.5816250883997576 0 0 0
245 1 -10.731915864323563 -6.760416671001633 -0.9789411682663651 0 0 0
264 1 -6.128078083719695 -8.192445682417562 -0.27173090921516696 0 0 0
272 1 -7.907959564331436 -6.5271068466475795 -0.460605899014805 0 0 0
134 1 -7.250847696994932 -8.272421328677886 -2.565858200388943 0 0 0
133 1 -6.09257432213723 -6.063554868474958 -2.005505209044104 0 0 0
141 1 -4.425869673595647 -7.799387612496879 -1.8774164486870717 0 0 0
147 1 -1.6297740325501273 -7.614881139432192 -1.2683276550580782 0 0 0
254 1 -14.077329600030208 -3.201943719811938 -1.3105517707601262 0 0 0
6 1 -12.424226658670197 -4.980927073834948 -1.1846228146316093 0 0 0
5 1 -12.097473254385271 -2.800150236781457 -2.8560014920265786 0 0 0
156 1 -9.536697330141815 -4.688123610964533 -0.34209289002173726 0 0 0
154 1 -10.517423845433493 -4.600586249561843 -2.7344843660897293 0 0 0
160 1 -7.787569985551977 -4.32567200406552 -1.991676311681907 0 0 0
140 1 -3.262069942238325 -5.76357556052114 -1.2720237780341925 0 0 0
164 1 -4.8584401646648505 -4.041897011286274 -1.3568148541290697 0 0 0
138 1 -3.0519445072370566 -3.676607196732265 -2.8115770169130094 0 0 0
146 1 -0.5132095804559018 -5.4333704655918265 -0.5759676924034807 0 0 0
145 1 -1.5239705918226676 -5.4770148813515025 -2.8646709233840717 0 0 0
170 1 -1.9034624547749246 -3.5776080214036483 -0.6110922518607946 0 0 0
144 1 -0.4023237009785152 -3.3012317238428306 -2.359225487275234 0 0 0
4 1 -13.941558051902621 -1.018432872190484 -2.9564095758611018 0 0 0
922 1 -12.935577690878247 -1.2738799818207909 -0.7237232865424321 0 0 0
209 1 -13.313272766251556 -0.27075087030813094 -12.98153133495625 0 0 0
7 1 -9.442119123115443 -2.4106746365985625 -2.1128071359108933 0 0 0
256 1 -11.284879866981484 -2.926299934754372 -0.5449324903662642 0 0 0
517 1 -11.164452874871882 -0.6244275704278692 -2.2286360245802452 0 0 0
142 1 -3.013662324574172 -11.868471528836546 -0.04086717104252813 0 0 0
309 1 -0.425984658213336 -8.515726753014457 -13.438994987639193 0 0 1
2 1 -6.405702549044122 -0.0787045653045535 -3.0973759402839107 0 0 0
191 1 -12.705795526282365 -4.03662787268471 -13.446245058998816 0 0 0
915 1 -10.099778906285033 -0.6914888085486304 -0.054100290520588956 0 0 0
3 1 -7.3942905103372 -0.002241236404602276 -5.492457863023894 0 0 0
483 1 -10.89145314191236 -14.25540724500928 -10.426347459482981 0 1 0
259 1 -12.24325826202022 -13.372303613126018 1.9053470785153515 0 0 0
1208 1 -13.850727292676014 -11.470221812524441 1.6937750547249255 1 0 0
405 1 -9.436015881496974 -13.034623288213787 2.58837254409317 0 0 0
260 1 -10.462049767092292 -12.960051413520915 0.2956347326405453 0 0 0
454 1 -7.560247203872554 -12.56557527655086 0.8771751456083443 0 0 0
397 1 -6.5248360189256775 -12.72180391336879 3.1688698951310865 0 0 0
399 1 -4.849983968476925 -12.093957879918525 1.560582833343151 0 0 0
1389 1 -3.2291119709278444 -14.093259891019063 1.6136728431498515 0 0 0
400 1 -2.0232376257601796 -11.873888475590594 2.288846660386815 0 0 0
1271 1 -0.31509623282400945 -13.6890184717494 2.48596392732904 0 0 0
410 1 -1.2626121033593698 -13.662950880590552 0.11888755865026823 0 0 0
246 1 -12.633397406847564 -9.399932913540136 2.228734150959612 0 0 0
1379 1 -0.008965035904216379 -4.172113515006174 10.094566902767236 0 0 0
323 1 -2.1140577657578117 -14.158004787845465 3.909811426637267 0 0 0
262 1 -11.037411733260972 -11.265467332872479 2.465868519430053 0 0 0
267 1 -10.863585722466677 -8.957111459299394 0.7914331506120789 0 0 0
265 1 -9.277208416023266 -10.935612330863172 0.8193882455232355 0 0 0
452 1 -9.918655136651912 -9.129565878873724 3.034279869874494 0 0 0
455 1 -6.441605551796871 -10.433014851790276 1.397385582513392 0 0 0
453 1 -8.200304602190418 -10.880784700358255 3.174302004675914 0 0 0
266 1 -8.081321223196426 -8.709278811132123 1.3796008074024204 0 0 0
386 1 -3.6328094290994173 -10.063171243144847 2.011458619785895 0 0 0
387 1 -0.797140186149278 -9.825425966977274 2.6910410616872067 0 0 0
456 1 -1.858176952995187 -9.737912778708719 0.4008433440023964 0 0 0
244 1 -12.613647053870373 -7.185432548663659 0.5683933237275713 0 0 0
268 1 -11.670855335400272 -7.2428921570140155 2.912925541360556 0 0 0
243 1 -9.825013854153624 -6.780140640191433 1.2682585583650408 0 0 0
443 1 -6.883959448602218 -6.428844257977592 1.9303606110555194 0 0 0
444 1 -5.197950492028429 -8.291642358026396 2.029890262559105 0 0 0
432 1 -4.259495842914779 -6.176165161169518 2.6230580031110176 0 0 0
271 1 -5.083494909841409 -6.1623297641483425 0.22721784284922997 0 0 0
445 1 -3.460726347027979 -8.01354868744393 0.41837828693173407 0 0 0
375 1 -2.464918846565631 -7.9972424068920756 2.732584361133961 0 0 0
388 1 -0.7873133816450011 -7.558771350535264 1.0778836274574513 0 0 0
434 1 -1.3266074410512196 -5.847877377091335 3.303876390500564 0 0 0
446 1 -2.4059054608773014 -5.787030785478276 0.9882456430530784 0 0 0
1303 1 -13.159316282103621 -5.424026079519512 2.8107949508708128 1 0 0
257 1 -13.13932204346484 -3.311436408228529 1.0561453640271719 0 0 0
241 1 -11.408702765203905 -5.095012395986256 1.1078290195506248 0 0 0
240 1 -12.070153029401798 -3.3161143168507525 3.301225754805534 0 0 0
274 1 -8.611264106458204 -4.627706269016018 1.8538105489270116 0 0 0
242 1 -10.202981456440986 -2.8027035419366193 1.6679107693602955 0 0 0
431 1 -5.735501676657751 -4.269410696375287 2.5877401919294076 0 0 0
273 1 -6.7230672313719 -4.402362804241786 0.3026207408846009 0 0 0
433 1 -3.885995997928081 -3.986158920614468 0.9396532414902872 0 0 0
421 1 -2.963455598295175 -4.001629465798262 3.226951244116682 0 0 0
435 1 -1.147133502741145 -3.6700787324227644 1.6942891778779128 0 0 0
236 1 -11.917608013455887 -1.011701397320504 1.5819054985221221 0 0 0
1316 1 -13.725263930422086 -1.5296280814619294 3.2155260615464183 1 0 0
237 1 -9.03614877361815 -0.6789689328430519 2.302939284029673 0 0 0
239 1 -7.325841524980738 -0.45463769737548354 0.6396886249426181 0 0 0
285 1 -7.334282699178478 -2.55586338862131 2.2616825560129943 0 0 0
296 1 -6.229085783963473 -0.4285537662806451 2.8924239446263 0 0 0
283 1 -5.534836653922357 -2.2698234921333924 0.7144101475081861 0 0 0
284 1 -4.583602941294737 -2.1088174663851085 3.027347317585333 0 0 0
401 1 -12.809636974747203 -14.246394203096127 11.879985694079481 0 0 0
282 1 -2.688374626407331 -1.7732903327629206 1.483905393057535 0 0 0
1707 1 -13.87364169177988 -14.178498091313235 9.566625392422074 1 1 0
845 1 -14.084392414003172 -13.799986821555578 3.5189364771038694 0 1 0
852 1 -13.09470632863706 -13.80637802196913 5.843575348700485 0 1 0
846 1 -11.866040084092614 -11.614174723129693 6.35916747107502 0 1 0
263 1 -12.974842968463198 -11.70338390084858 4.111090359856876 0 0 0
847 1 -11.251048675946729 -13.408686125933079 4.298570249820871 0 1 0
404 1 -10.153719546294742 -13.412086523511176 6.505127672914822 0 0 0
406 1 -8.396102709466145 -13.15480087383144 4.792586567627152 0 0 0
354 1 -5.560759425786319 -12.831967600646612 5.513095359121243 0 0 0
356 1 -3.786335657820686 -12.398916709801668 3.8763901665915323 0 0 0
355 1 -2.7063981149135046 -12.398360138637207 6.176487206766206 0 0 0
1388 1 -1.0008582227863645 -11.924424084339957 4.611883295121986 0 0 0
252 1 -5.13660600203079 -0.8229840067995688 11.413572522951762 0 0 0
911 1 -2.5450190937610007 -0.09090170883613702 5.895326567015962 0 0 0
403 1 -13.500694082702863 -9.823035865532733 6.1272845948761 0 0 0
450 1 -11.686994908296857 -9.390133931107487 4.582311239695736 0 0 0
459 1 -10.245239835524877 -11.421920553888924 4.730733249664679 0 0 0
395 1 -8.997025688475587 -9.309177866594158 5.2340031646988 0 0 0
396 1 -7.3034444766675986 -10.880914598050145 5.455685444982448 0 0 0
383 1 -6.077978486723026 -8.743421445427014 5.9336787247097345 0 0 0
384 1 -6.981036084853161 -8.690874176077475 3.6454980397318177 0 0 0
398 1 -5.499947287434097 -10.566487133629018 3.776051720369841 0 0 0
343 1 -4.453991262818608 -10.667530594583694 5.985390108755501 0 0 0
345 1 -2.71947655079002 -10.044953482271922 4.250355681185548 0 0 0
344 1 -1.5374757361848808 -10.124734972601832 6.741346667907125 0 0 0
269 1 -13.410025862677395 -7.525333265556793 4.495673335826188 0 0 0
366 1 -11.233673801513003 -5.937795328755708 13.42186698144038 0 0 0
441 1 -8.763894815261235 -7.044966367240092 3.4514281357955436 0 0 0
451 1 -10.498032175375917 -7.2753182265400795 5.247875279410584 0 0 0
382 1 -7.918458437548963 -7.162684604169443 5.863341486837998 0 0 0
373 1 -5.993528901514489 -6.55303966689025 4.27511797357632 0 0 0
335 1 -3.291214734523143 -8.445292767241027 6.620770728813957 0 0 0
385 1 -4.308271801509635 -8.41524060049199 4.257406342470128 0 0 0
374 1 -3.1864694488916605 -6.2068123722312905 4.920574372692107 0 0 0
430 1 -4.930706627591341 -6.616423587593671 6.532531064001271 0 0 0
336 1 -1.6457105297826633 -7.973647076667013 5.010735339084972 0 0 0
365 1 -0.4159697651062597 -5.919249340983132 5.662509148826556 0 0 0
1302 1 -13.711122411808233 -3.6353722931331074 4.888000418645854 1 0 0
276 1 -12.22854298778699 -5.445348618014933 4.996056386274544 0 0 0
275 1 -10.45798370863215 -5.269929260089956 3.5078448968653664 0 0 0
427 1 -10.994281160356485 -3.3793640094018897 5.571251557554957 0 0 0
440 1 -9.453439534461062 -5.190794836952007 5.734528261455798 0 0 0
287 1 -9.180994205890215 -2.9724143781603267 3.9250564809442157 0 0 0
442 1 -7.627352657786964 -4.807355199942521 4.100567406930137 0 0 0
429 1 -6.570801221647288 -4.80773206337237 6.328510479532609 0 0 0
288 1 -8.252862741713571 -2.8987805787772256 6.246952390794066 0 0 0
419 1 -4.875543092502118 -4.38700360279373 4.814745207851109 0 0 0
422 1 -0.22569887115468745 -3.7281484571284267 3.8190729012857982 0 0 0
420 1 -2.074461520843302 -3.9763194960756145 5.501836554218125 0 0 0
234 1 -12.708816921193737 -1.5321616340488067 5.453945801196598 0 0 0
235 1 -10.829911364257832 -1.1910366033812707 3.7392204526880466 0 0 0
300 1 -9.933277242494906 -1.233676700028429 6.163759857851483 0 0 0
286 1 -6.426857968389722 -2.5365492287051854 4.5650642331360505 0 0 0
298 1 -8.091984255117342 -0.7554129049510259 4.5029812711121355 0 0 0
1830 1 -1.1094502652295493 -14.225786392195179 6.250914205965659 0 1 0
910 1 -3.634171039719009 -2.2755561434524516 5.392825730778453 0 0 0
297 1 -5.325593857108972 -0.3086302388633406 5.121137819198621 0 0 0
302 1 -2.2095731776237066 -0.5156651016902849 12.100653479624187 0 0 0
912 1 -1.8291096933005235 -1.8401685574108928 3.704773252566339 0 0 0
248 1 -0.8980220643122081 -1.9237810163445204 6.0963442758203445 0 0 0
457 1 -12.013354046085473 -13.649552686551901 8.0331116329943 0 0 0
1193 1 -13.678735551746065 -12.02987176701429 7.988454147498741 1 0 0
294 1 -4.426245274595269 -0.020208382957328297 1.2985851451919057 0 0 0
350 1 -9.250343865198776 -13.361734052858182 8.767058105939883 0 0 0
449 1 -10.842264322042986 -11.457140026827584 8.59468702212717 0 0 0
352 1 -7.393892130533915 -13.09589798674421 7.103491708481 0 0 0
351 1 -6.313072873436697 -13.22281133048022 9.359187238402244 0 0 0
353 1 -4.582220175207455 -12.81065883116472 7.70030731680056 0 0 0
315 1 -3.5436285914121797 -12.687408698608854 10.055362781584618 0 0 0
317 1 -1.8462087720582314 -12.410122287704475 8.32966458925691 0 0 0
278 1 -0.6770732005622424 -2.538906237933869 12.034981179370517 0 0 0
448 1 -12.580567827176164 -9.783111872709087 8.430846174144902 0 0 0
394 1 -9.125296316788607 -11.205835644787602 6.996534175720724 0 0 0
393 1 -10.758839044077071 -9.337177599461889 6.846731254557897 0 0 0
380 1 -9.646481754672493 -9.454135277887588 9.185028799030787 0 0 0
339 1 -8.001127069193771 -11.41057112230372 9.306206370262446 0 0 0
381 1 -7.927530561618773 -9.096323921589287 7.617166310115186 0 0 0
341 1 -6.32684346705702 -10.893269723614129 7.654596964729167 0 0 0
331 1 -6.861886464957537 -9.18073522345097 9.846616816443538 0 0 0
342 1 -3.4880741109954414 -10.61518132615478 8.302279305475595 0 0 0
333 1 -5.177859157974327 -8.766283457579057 8.119650424755347 0 0 0
340 1 -5.23785615840044 -10.979973204074827 9.924931020519194 0 0 0
312 1 -0.5645918779016679 -10.405075195555174 9.066584733044357 0 0 0
1376 1 -0.06525703443169384 -14.241873977517544 8.498046205537433 0 0 0
270 1 -12.515082006469765 -7.4777644216871995 6.708913308995518 0 0 0
1292 1 -13.100875669315364 -5.801523896212622 8.904981349348764 1 0 0
437 1 -11.47241520101031 -7.730644210589414 9.09442721053781 0 0 0
439 1 -9.59185318070555 -7.437458695765073 7.554896611320194 0 0 0
369 1 -8.449453585368062 -7.244463176641878 9.751040728846379 0 0 0
371 1 -6.769343775261224 -6.880297963369434 8.093903111471048 0 0 0
372 1 -3.9963901754098696 -6.6705082986001285 8.706638600764519 0 0 0
334 1 -2.291332756803227 -8.51611343606589 8.88563519622907 0 0 0
1383 1 -0.4268057942094021 -8.020399983136773 7.364660094661845 0 0 0
328 1 -1.1042633498475976 -6.3179863417791156 9.472753140578275 0 0 0
363 1 -2.187466067443287 -6.203159525155634 7.280458163755432 0 0 0
289 1 -12.79095909249312 -3.6734126497594914 7.23066593595358 0 0 0
425 1 -11.92811821374735 -3.776490794595567 9.577731446654552 0 0 0
280 1 -11.204957041432127 -5.4725863559136965 7.411282195461906 0 0 0
438 1 -10.214453809631653 -5.505614727328512 9.54610998303278 0 0 0
426 1 -10.073594423692693 -3.414716066020036 7.886462815677463 0 0 0
428 1 -8.387627162791393 -5.0619804904353405 8.005813192959705 0 0 0
416 1 -7.1668001294347325 -2.834954293070295 8.49869176285974 0 0 0
361 1 -5.634804266772104 -4.740827385504186 8.559661874653608 0 0 0
418 1 -3.7118946915308104 -4.352016866264092 7.083676496688055 0 0 0
362 1 -2.8195898928878886 -4.636701657159017 9.283206775876556 0 0 0
364 1 -0.9686229611242805 -4.086807684327143 7.6821746675351985 0 0 0
1289 1 -13.620562130272239 -2.074027882539049 9.537519273124177 1 0 0
290 1 -11.822070489984466 -1.6118766875474897 7.88440682003594 0 0 0
415 1 -8.868441486980924 -1.217705103440295 8.453360077828952 0 0 0
299 1 -7.092145356168023 -0.791578580138232 6.682074425456667 0 0 0
907 1 -6.10071738116671 -0.8978636672231683 9.177827154101406 0 0 0
417 1 -5.45174985942338 -2.5496285053131054 6.863145734895221 0 0 0
251 1 -4.43897527864481 -2.6675852985927566 9.1539934438452 0 0 0
250 1 -3.3759072658550036 -0.5775303648276093 9.78034517891579 0 0 0
908 1 -4.307064923884077 -0.4827468224792497 7.568626793309738 0 0 0
307 1 -0.16615101755211725 -6.335335258937172 11.751744402473781 0 0 0
277 1 -1.6751461850929772 -2.2974123749537263 9.962961575919563 0 0 0
249 1 -2.549315031503374 -2.3186411665436513 7.685130450017999 0 0 0
391 1 -12.737012102645775 -11.997456810625833 10.254937375480393 0 0 0
390 1 -11.743985095704662 -12.080182629599896 12.467208330943214 0 0 0
881 1 -1.4927618552909383 -0.11455100305205157 8.100476461167043 0 0 0
10 1 -8.884012638949127 -11.711928528025016 13.142595420790014 0 0 -1
804 1 -10.991956304971916 -13.700922235237927 10.367272448133116 0 1 0
392 1 -9.91747756603634 -11.58152387841815 10.927645520185562 0 0 0
348 1 -9.967190608962348 -13.910239600628374 12.554482101523137 0 0 0
13 1 -7.153114181977686 -13.52500885357938 13.308524486890304 0 0 -1
349 1 -8.265122345014568 -13.386488807079463 10.95056939174892 0 0 0
318 1 -5.275040012210209 -13.210448137911222 11.690626288556322 0 0 0
699 1 -2.4467960579840575 -12.905710652643002 12.38503543939155 0 1 0
316 1 -0.7776985011083717 -12.448404663198058 10.606897100829483 0 0 0
376 1 -13.446038291144182 -10.214214668960306 12.382615020601028 0 0 0
378 1 -11.521645071995792 -9.731562406460444 10.84801831742942 0 0 0
377 1 -10.469399675445375 -9.874161969879829 12.987644915496793 0 0 0
337 1 -8.552107058067918 -9.469735662525107 11.4041118530789 0 0 0