LAMMPS data file via write_data, version 2 Aug 2023, timestep = 0, units = metal

1868 atoms
3 atom types

-14.042433091406874 14.042433091406874 xlo xhi
-14.090542243741247 14.090542243741247 ylo yhi
-13.820270124442553 13.820270124442553 zlo zhi

Masses

1 55.847
2 1.008
3 1.008

Atoms # atomic

1042 1 -11.153446523712692 -10.69589035354954 -10.389294096432717 0 0 0
1043 1 -11.538460643536384 -9.763283274908162 -12.796456294108697 0 0 0
1513 1 -10.447357728874362 -13.20188134659782 -9.93314022009554 0 1 0
980 1 -12.626620860081147 -12.405508590884224 -10.143175758999709 0 0 0
1722 1 -13.031869311278925 -11.606594303899126 -12.542257336184106 1 0 0
1041 1 -10.744321247304288 -12.509859007578777 -12.148152311539398 0 0 0
1044 1 -13.471912631690069 -9.711921832374863 -10.948358558475151 0 0 0
977 1 -12.249062604831892 -9.262911405060661 -8.927577394833172 0 0 0
1134 1 -9.296520704592961 -10.754982790398996 -12.329659733008747 0 0 0
1036 1 -9.688476349233596 -9.877997157483378 -8.368228810781622 0 0 0
1702 1 -13.72921359269543 -8.990482994532048 -13.341662817773273 1 0 0
1035 1 -8.974375533129209 -11.555671591329705 -10.024119221917907 0 0 0
1037 1 -9.840796040206772 -8.835081176595779 -10.864310505669037 0 0 0
978 1 -13.764270939238365 -11.313282521956813 -8.342900228799778 0 0 0
975 1 -12.252758445456049 13.991725915891273 -11.753815665573715 0 -1 0
1033 1 -8.510979652252017 -13.359622245386936 -11.637686633644215 0 0 0
1034 1 -6.869879901622146 -12.448907084958675 -9.563873338005466 0 0 0
1123 1 -4.808559705006758 -12.431061101898083 -11.432887669749155 0 0 0
1124 1 -5.353131985401921 -10.491294614102083 -9.97719086887283 0 0 0
1125 1 -7.031987003687728 -11.54912024720834 -11.813726292125947 0 0 0
1023 1 -4.572159488425619 -13.047881793417256 -9.173028510428047 0 0 0
1247 1 -5.550069963077576 -9.830446652111393 -12.378140996356839 0 0 0
1126 1 -7.605029396749287 -9.743074072511359 -10.542727642473364 0 0 0
1231 1 -3.1973226866641458 -10.631435493834289 -11.929822736184223 0 0 0
732 1 -7.781309175847041 -8.914858972162612 -12.738402925307474 0 0 1
746 1 -6.524874248425211 -13.441757640034508 -13.546032221646705 0 0 1
1113 1 -5.991406950659371 -8.602446529146087 -8.548889602754517 0 0 0
1112 1 -3.938704664613086 -8.693049124315852 -10.35849140114172 0 0 0
1109 1 -2.9612868634578255 -11.280048368658484 -9.565519827621937 0 0 0
1246 1 -2.7321337109040993 -12.497304585218638 -13.469689298470232 0 0 0
1110 1 -1.5996616218619302 -9.44732900641788 -10.070255568234032 0 0 0
1092 1 -0.7106905063451094 -11.99813874383635 -9.13036631474614 0 0 0
1230 1 -2.473593093149649 -13.236362232097196 -11.027705212443125 0 0 0
1210 1 1.2791164038230889 -12.112796097437862 -11.08980106166484 0 0 0
1371 1 -0.8612279212642662 -11.252006266469936 -11.59912111589207 0 0 0
1211 1 0.6496102199615184 -10.125570925615975 -9.765800027246296 0 0 0
1209 1 1.62233316368728 -12.71191849646798 -8.712844370041285 0 0 0
1229 1 -0.5886522791498727 -13.268529620046564 -13.010791053355401 0 0 0
1351 1 0.5936799610528105 -9.495678182259542 -12.099888531690477 0 0 0
1810 1 -0.2683598827959983 -13.9288419319902 -10.693026854196681 0 1 0
1605 1 -2.289579876393292 -13.875096343450391 -8.769498963241375 0 1 0
455 1 0.9867472730319324 -11.43074914815959 -13.613306480271138 0 0 1
1809 1 1.718666212455787 -14.04181800904724 -12.725963672570161 0 1 0
1372 1 -1.8027998801488785 -8.705331955453042 -12.304803980819848 0 0 0
1349 1 2.7927087506222072 -10.271145068522404 -11.678751672051023 0 0 0
1188 1 3.010497496911377 -10.83304791754864 -9.28341673718736 0 0 0
1370 1 3.199987599538897 -12.27761520465308 -13.168974948037475 0 0 0
1802 1 3.5516020373066475 -12.836822840480796 -10.742642539499366 0 1 0
1348 1 5.017893174131935 -11.041383226988867 -11.340794802662309 0 0 0
1324 1 7.356873749951109 -11.71315051490708 -10.891855144238438 0 0 0
1326 1 4.592783070588993 -9.12738231995123 -9.668910266085273 0 0 0
1493 1 6.806229541210577 -11.167062443911686 -13.308364325017795 0 0 0
1494 1 6.461188932723097 -9.134293893264608 -11.61357512703998 0 0 0
1186 1 5.39436075813494 -11.61310144970108 -8.764001265808915 0 0 0
1325 1 6.831521064169664 -9.830304213409374 -9.370612690501309 0 0 0
1347 1 5.422208448421031 -12.91043892654322 -12.819663317016177 0 0 0
1847 1 5.761045904868677 -13.634930532381263 -10.484669305857855 0 1 0
1700 1 3.911142148047791 -13.461022221834371 -8.489548577702184 0 1 0
1866 1 7.897487985001256 -13.75070949295242 -12.39889602315289 0 1 0
1323 1 7.707843345475563 -12.400784227477716 -8.509961113839196 0 0 0
464 1 4.571580546245126 -10.281816695231633 -13.620880884084078 0 0 1
1471 1 8.781211259753057 -9.856916364952532 -11.499924055296145 0 0 0
1470 1 9.08711586799473 -11.738865933233837 -13.034882226584484 0 0 0
1585 1 12.937892267970021 -10.662666787569378 -13.055156694724943 0 0 0
1607 1 11.477826737452673 -12.64447613431314 -12.567234753340887 0 0 0
1299 1 11.01253526269996 -10.666841131506944 -11.1875576510557 0 0 0
1423 1 9.67887179164152 -12.598657135828235 -10.702352279609554 0 0 0
1447 1 9.187299392634444 -10.502315908503668 -9.126332002628981 0 0 0
1445 1 11.886416767906699 -13.371701167147785 -10.268302757626428 0 0 0
1583 1 12.808797447511186 -9.499246437443977 -9.258628070551321 0 0 0
974 1 11.44872119821527 -11.322420002390785 -8.720534803684602 -1 0 0
1608 1 10.615611181443125 -9.898076737105502 -13.565957079354312 0 0 0
1446 1 13.165982601534758 -11.57987524091397 -10.579137708328858 0 0 0
1703 1 12.473761740198256 -8.730375273511008 -11.562777969495865 0 0 0
1586 1 10.453283599413194 -8.726368480051232 -9.588320949706109 0 0 0
313 1 8.303613158950796 -9.276817075527958 13.798219016531045 0 0 0
1584 1 13.717699298796369 -13.424479546136844 -12.213910860246937 0 0 0
1038 1 -10.796995341689103 -7.50182497388184 -9.182891535965908 0 0 0
1039 1 -12.452435914455464 -5.877283667932264 -9.746592563799895 0 0 0
1128 1 -9.231849882857158 -5.275886022399396 -9.851566903757158 0 0 0
1129 1 -10.43536045020238 -6.15635500177725 -11.795730349662692 0 0 0
1135 1 -12.058284810910594 -7.758569654085026 -11.432776360403658 0 0 0
1136 1 -12.712866324499949 -5.237550869966315 -12.361243576637039 0 0 0
1130 1 -11.103643922022574 -3.946322459298891 -10.460849787822392 0 0 0
717 1 -9.936466515319642 -8.117751750312996 -13.34103674837361 0 0 1
1249 1 -8.933938320668098 -4.298900797525937 -12.31789935228868 0 0 0
1562 1 -13.922948517917739 -7.567683590813773 -9.520163803731155 1 0 0
1132 1 -12.068959074893668 -2.9866109929461526 -8.541696415149676 0 0 0
1131 1 -11.080299977671963 -3.3783467382557397 -12.819729446147193 0 0 0
1133 1 -13.228369280156606 -3.243601936391846 -10.938823008957396 0 0 0
1117 1 -9.581223321051588 -3.4873165760565747 -8.199471859095702 0 0 0
1704 1 13.780904232984028 -6.999077308192869 -11.91667247950084 0 0 0
716 1 -8.534534401413223 -6.353940577337914 13.809705183193437 0 0 0
1027 1 -8.252572722745576 -7.936044724884369 -8.992739502520417 0 0 0
1127 1 -8.361166991120578 -7.061381591535572 -11.299145452532294 0 0 0
1116 1 -7.441892212554882 -3.424748051794298 -10.217009834872929 0 0 0
1114 1 -6.7582531604876515 -6.027781170726486 -9.45059866365678 0 0 0
1235 1 -6.905158855273241 -5.248859744167513 -11.895770486551692 0 0 0
1236 1 -5.148948069070833 -4.1763048807928325 -9.921820267057715 0 0 0
1248 1 -6.155780675397763 -7.868787821689757 -11.033755326047462 0 0 0
1373 1 -4.565265047089399 -6.078497452192062 -11.340531668393723 0 0 0
1234 1 -4.415819794824568 -6.724613684739412 -8.970302386967987 0 0 0
1233 1 -4.042105263491811 -7.927217489922649 -12.778456419171867 0 0 0
579 1 -6.3454455786493105 -7.096173084370594 -13.267837237192891 0 0 1
1374 1 -5.3794742909268525 -3.3207034738369643 -12.149458903823358 0 0 0
1515 1 -3.058728214908939 -4.281048978350952 -11.782215027529903 0 0 0
578 1 -4.798533227409628 -5.388399862172413 -13.687548169653015 0 0 1
1216 1 -2.7360158290785055 -4.998156883915367 -9.321332637949247 0 0 0
1350 1 2.3116358491226556 -8.233255674785077 -10.129609570761566 0 0 0
1232 1 -2.3245472277925927 -6.885893265622252 -10.747333583522188 0 0 0
1212 1 -0.11557441500492338 -7.5517323940699255 -10.511249092268244 0 0 0
1214 1 -0.5593727961054018 -5.668429617465746 -8.862604768473936 0 0 0
1353 1 -0.9963128446771421 -5.078908354150347 -11.299536604072157 0 0 0
1330 1 1.0403486780229585 -3.906941918797042 -9.498384135479785 0 0 0
1497 1 1.4346341871797534 -5.6604123719436 -11.059092883747674 0 0 0
1514 1 -0.33212962700842397 -6.920740917308214 -12.885100880409468 0 0 0
1352 1 1.7547901735955644 -6.467301428393172 -8.600703176453932 0 0 0
1096 1 -2.0020186555907795 -7.611905754268959 -8.489377206202775 0 0 0
288 1 1.0891656667227885 -5.067488977974834 -13.347236589397372 0 0 1
1496 1 2.011856777225834 -7.5817583466680825 -12.476468086524003 0 0 0
429 1 -2.5641994403816746 -6.175826564907081 -13.26238196927646 0 0 1
1498 1 0.6324566568856991 -3.120222224975951 -11.834393752675343 0 0 0
1354 1 -1.2941823716159178 -3.1149568527184215 -9.917356414695757 0 0 0
287 1 2.622224898901891 -3.2054433163237874 13.725026064148997 0 0 0
1495 1 4.186168226261987 -8.512906949472223 -12.057561742901392 0 0 0
1499 1 2.8965767049271065 -3.8623270111692225 -11.476077024376771 0 0 0
1476 1 3.2424123139785443 -4.733520330153642 -9.122905513084767 0 0 0
1328 1 3.725198079813083 -6.464744111249854 -10.82884167421103 0 0 0
1474 1 5.911759595690135 -7.131461227164301 -10.358329662154521 0 0 0
1629 1 5.711813050612879 -6.570075360147119 -12.702695173793193 0 0 0
1475 1 5.139705620567717 -4.564736729567963 -11.193218472300925 0 0 0
1612 1 7.419859055029367 -5.328612064269246 -10.73140488351427 0 0 0
1630 1 7.053891877817531 -4.657444519622308 -13.143081763423119 0 0 0
1631 1 3.3479303855530276 -5.813886499191023 -13.011542692348835 0 0 0
1452 1 5.57003957401443 -5.27345208906115 -8.870013977873269 0 0 0
1592 1 7.031282776271524 -3.455507678745608 -9.062124574997892 0 0 0
1613 1 4.828635082940888 -4.053416328429998 -13.56248763978004 0 0 0
1610 1 7.90166838277143 -7.350730863381616 -12.361590279888519 0 0 0
1590 1 7.874310550780674 -5.9400411579440355 -8.409721352637792 0 0 0
1327 1 4.051570678649867 -7.240862454399698 -8.302887303796417 0 0 0
1473 1 8.146790925084268 -7.887071633419254 -9.93698430442149 0 0 0
1587 1 10.173815878966202 -8.07650421156411 -12.038929925460565 0 0 0
1448 1 9.747177610305794 -6.061922492089316 -10.41011264782351 0 0 0
1611 1 9.422663447051054 -5.51190995455859 -12.86289792078499 0 0 0
1589 1 11.185890734525842 -4.208935582138235 -10.909935269117387 0 0 0
1705 1 11.770592990361315 -6.230391803369256 -12.596443834791712 0 0 0
1706 1 10.886632864270965 -3.660227470204463 -13.309724009647011 0 0 0
1564 1 11.903366722663485 -6.93505117977295 -10.162918494369556 0 0 0
1688 1 9.408736789921683 -4.081058533689225 -8.905147810962294 0 0 0
1591 1 8.938816716482602 -3.622644038178363 -11.186794100158947 0 0 0
1788 1 13.144263923237766 -4.304960446271247 -12.93015133126306 0 0 0
1566 1 11.736260111841084 -4.8121939294759475 -8.463266433516178 0 0 0
1684 1 13.445542365721778 -5.0512373358254905 -10.44871211756889 0 0 0
1685 1 13.232642772824004 -2.9982256332803274 -9.026158839381726 0 0 0
1839 1 -13.390295859920952 -2.559925084474802 -13.411744389369684 1 0 0
1118 1 -10.606996829134182 -0.9799561166605972 -9.102350230815308 0 0 0
1252 1 -11.827122103689401 -1.4998662880837497 -11.22196362753078 0 0 0
1120 1 -12.166889443532066 0.6016947750221888 -9.76918880396914 0 0 0
1253 1 -12.60460885658581 1.2106977741726137 -12.109890807678932 0 0 0
1388 1 -10.330577144460646 0.33382813015145096 -11.510258114187447 0 0 0
1240 1 -8.957258199063311 1.010768878590543 -9.53255188783143 0 0 0
1250 1 -9.482244001722725 -2.453448366781437 -10.94860120580433 0 0 0
1251 1 -9.69694099726928 -1.4827516599621688 -13.278668731411582 0 0 0
1776 1 -13.57395828204097 -1.1823546658422437 -9.391975027155798 1 0 0
1380 1 -8.881916739751134 2.038835899910943 -12.000364365745556 0 0 0
1790 1 14.024620449715929 -0.5819261191270098 -11.782885476003369 0 0 0
1241 1 -10.865328726419316 2.3865514591717556 -10.146162127502581 0 0 0
1121 1 -12.524860774432067 2.4845774287512015 -8.338028612941251 0 0 0
1375 1 -3.4741436095468785 -2.370960163405366 -10.343067664395543 0 0 0
1238 1 -8.096549418909557 -1.5401839195540088 -8.800041797580986 0 0 0
1237 1 -5.965831541691463 -1.498295547350315 -10.759712589273615 0 0 0
1239 1 -7.997319170790115 -0.6364838512967577 -11.14635320673997 0 0 0
1387 1 -7.537264489320614 -2.3348262772015183 -12.74141864667878 0 0 0
1377 1 -4.4359108381990175 0.2851057847215177 -11.259340951048491 0 0 0
1359 1 -4.890321507019825 2.236722560474906 -9.67817216443122 0 0 0
1220 1 -6.53326996498822 0.18908945656235865 -9.23181567310722 0 0 0
1358 1 -4.158346441857693 -0.43441153184864767 -8.878939579464909 0 0 0
1378 1 -6.790208150394616 1.221026420035603 -11.543034771891366 0 0 0
1376 1 -6.057966954064292 -0.6007861529831899 -13.119105256609108 0 0 0
1516 1 -3.9772881985563444 -1.6049003758880538 -12.687106285526777 0 0 0
399 1 -4.633197295535545 1.0422061126695077 -13.58159369606499 0 0 1
549 1 -8.257543783618384 0.3316902473098189 -13.597248393904511 0 0 1
1517 1 -2.950071278343648 2.1232630398174166 -11.468052715931684 0 0 0
1336 1 -2.6587515258483503 1.4805423933282658 -9.195528721405822 0 0 0
1357 1 -2.0712687630811395 -0.5177880273315321 -10.707137485728374 0 0 0
1502 1 -2.4013211662168263 0.2774266327139774 -13.094308406938659 0 0 0
1355 1 0.22966157908654772 -1.1381507028836744 -10.299590871956514 0 0 0
1500 1 -1.6715439117861912 -2.4049805514623053 -12.230898383843865 0 0 0
1479 1 1.5929331687316353 0.6618837946598752 -10.853244518673456 0 0 0
1632 1 2.104560261703398 -1.2831236307203877 -12.487150839164014 0 0 0
1633 1 -0.16435330202998344 -0.5448231292884582 -12.647994531716964 0 0 0
1334 1 -0.7229741012133388 1.4311534601539222 -11.183895717293177 0 0 0
1480 1 -0.4145673043265852 0.6901646732779483 -8.731876622142124 0 0 0
1456 1 1.8900201527867946 -0.08723632257667369 -8.469417979778932 0 0 0
1478 1 2.406779657098774 -2.0961134403782467 -9.985982700731444 0 0 0
1739 1 1.3129274848127324 1.3101286083533292 -13.17645748459508 0 0 0
140 1 -0.8864184046943375 2.075806406141428 -13.46618948202755 0 0 1
1356 1 -1.893234023754328 -1.1859542263996108 -8.434642109253502 0 0 0
1481 1 1.061882868693715 2.6628226548447422 -9.170228600283426 0 0 0
1614 1 6.638172700513909 -2.699578205430088 -11.589484807199359 0 0 0
1454 1 4.747800560239408 -2.653960602053674 -9.67547882653124 0 0 0
1477 1 4.289933002490109 -1.9677943765575439 -12.042648857007222 0 0 0
1617 1 3.486821169698839 0.6677693787571108 -12.852054406401626 0 0 0
1616 1 3.8224454300130866 -0.10951495310078485 -10.547305731358051 0 0 0
1593 1 6.168519299364213 -0.7551647187479897 -10.139743038273284 0 0 0
1615 1 5.811906178300809 -0.16368810296900982 -12.474881804901207 0 0 0
1595 1 5.263578495132624 1.6315398893033066 -10.957885817441705 0 0 0
1727 1 7.203102485926593 1.7599003808726703 -12.868405588579131 0 0 0
1711 1 7.653725067012058 1.1173826754553229 -10.540469896044014 0 0 0
1596 1 3.3879746959940995 1.8129757581462425 -8.956576384422402 0 0 0
1594 1 5.637926270480218 1.0750507525842838 -8.582315537120898 0 0 0
1728 1 5.015860684201055 2.4941640249868726 -13.359517841293242 0 0 0
1618 1 3.0430382289397215 2.557240866011057 -11.347537539170785 0 0 0
1726 1 8.187917815395064 -0.8920619941951298 -12.082586432828144 0 0 0
1691 1 8.008791767319241 0.2950182143217628 -8.233261295093195 0 0 0
1725 1 8.564664238319864 -2.768309302273831 -13.670004202888776 0 0 0
1709 1 8.374799116240784 -1.5673317734931764 -9.715785608001273 0 0 0
1707 1 10.876012487800768 -2.3687707750416287 -9.383382200523139 0 0 0
1686 1 12.698560152528387 -2.423837400543894 -11.369653688745904 0 0 0
1708 1 10.355176583082159 -1.7082471298900543 -11.814739605934514 0 0 0
1710 1 9.561376492765184 0.9498742606722441 -12.66929612771105 0 0 0
1690 1 9.942291061222008 0.23540410090387276 -10.217611262895474 0 0 0
1791 1 11.75007779017703 0.12182703047274046 -12.28271219301435 0 0 0
1777 1 12.254089019020178 -0.49943810591126514 -9.860382199449099 0 0 0
1779 1 9.41251747683819 2.093132107176963 -8.726315363930304 0 0 0
1778 1 11.371757774104445 2.083170019885074 -10.700543275122042 0 0 0
1840 1 13.27659579026151 1.9337605756875043 -12.674802890496188 0 0 0
1672 1 11.771872331749147 1.4726339875081784 -8.321851202675777 0 0 0
1789 1 12.517604935101385 -1.7518974106927843 13.819257043114883 0 0 -1
1828 1 13.577761528601819 1.4689985140796384 -10.227918671224895 0 0 0
1389 1 -11.05192964206408 2.8931811628696913 -12.489388052588458 0 0 0
1255 1 -13.074886460427894 3.1790360536796065 -10.714735543957183 0 0 0
1243 1 -11.630532909259923 4.891310207592852 -11.122302149454915 0 0 0
1382 1 -9.596718192621715 4.762772506654475 -13.042842388026898 0 0 0
1242 1 -13.384032874001894 5.013044782257886 -9.122870853228445 0 0 0
1384 1 -10.037885138438961 6.631539625209854 -11.49420800264207 0 0 0
1383 1 -11.926654154250535 6.822846859351454 -9.589571065698127 0 0 0
1364 1 -9.595058257533285 5.912322972944846 -9.146780410521098 0 0 0
1254 1 -13.295689511495794 3.8145428346078845 -13.016082478598573 0 0 0
1224 1 -11.203383072349034 4.37419921809898 -8.706261089837213 0 0 0
1857 1 -13.779860157733175 5.679278573342312 -11.551392552838626 1 0 0
1390 1 -11.830556759083695 5.676066873270489 -13.415287734654179 0 0 0
1381 1 -9.328408553006778 4.063230556100287 -10.659112677380465 0 0 0
1526 1 -12.315935212058044 7.485978290752133 -11.85097406952038 0 0 0
1379 1 -7.259465744518823 2.9395007025972433 -9.941415700593293 0 0 0
1505 1 -3.391274998997961 4.093648840821345 -10.107003031762844 0 0 0
1504 1 -5.15915400244104 2.9387313829277133 -11.891141500613648 0 0 0
1519 1 -7.751930902179433 5.816736849936795 -10.907569592936701 0 0 0
1361 1 -5.700184700200131 4.8674831829027205 -10.50729450798865 0 0 0
1506 1 -4.132252720534753 6.642759880196937 -10.940290792448716 0 0 0
1518 1 -7.476465554604667 3.8800862386333463 -12.44266465556492 0 0 0
1645 1 -5.957011518058666 5.695711671660909 -12.926059061193643 0 0 0
1362 1 -6.230502646232421 6.768577894368445 -8.977180925416404 0 0 0
1338 1 -3.941920137192165 6.068283326310116 -8.4786934845617 0 0 0
1222 1 -7.690647509550779 4.826190318630598 -8.64238233950222 0 0 0
1520 1 -8.14910325608378 6.611383772660194 -13.39047230015631 0 0 0
1644 1 -3.685062716731524 4.783365258662734 -12.412382292104132 0 0 0
1637 1 -4.433652096232128 7.41511137394647 -13.340759164610143 0 0 0
1508 1 -6.325815396561437 7.634143111121372 -11.489833515485067 0 0 0
1363 1 -8.40360709519893 7.7085267565389195 -9.407853840217957 0 0 0
249 1 -3.1931697072346843 2.927108691901118 13.693382141616505 0 0 0
1485 1 -2.5481686455165615 7.783866395783711 -9.016391087335208 0 0 0
1501 1 0.7598451091437415 3.281738550168992 -11.579571443426596 0 0 0
1503 1 -1.27232718826715 3.3116910210512422 -9.497582465141033 0 0 0
1483 1 -1.9578321713121003 5.98706120631703 -10.515941673944225 0 0 0
1634 1 -1.4199821844798635 3.9685926070548057 -12.106580789774556 0 0 0
1621 1 1.831787456716322 7.0067987096422115 -10.644965447648651 0 0 0
1635 1 -0.017567979419096602 5.867378235196526 -12.445894201494324 0 0 0
1620 1 0.3706892047319368 5.155729351139794 -9.986815667675204 0 0 0
1622 1 -0.0890697911451408 7.275029255331816 -8.634125048786128 0 0 0
1741 1 -2.281861566761693 6.566445484044461 -12.83013015976503 0 0 0
1636 1 -0.4942773183960423 7.6959678994601965 -10.996282670367151 0 0 0
1619 1 2.2478122428450824 5.222209777787636 -12.081881881474347 0 0 0
1732 1 1.4132975812334934 7.807761991762646 -12.913629618423046 0 0 0
1717 1 2.092560014077879 6.33070548885841 -8.162703765554994 0 0 0
1597 1 2.667731349206896 4.517722446840978 -9.861168065532715 0 0 0
1730 1 2.749104591613847 3.2259355922230277 -13.669487927911973 0 0 0
1572 1 7.1940641976626445 2.974317858243573 -9.098453787973114 0 0 0
1731 1 3.69191610990179 7.037528832985178 -12.7376941760757 0 0 0
1713 1 4.902234461904531 3.72596618070855 -9.382719987560279 0 0 0
1712 1 6.7758456120813655 3.7093008889732957 -11.50835261292611 0 0 0
1729 1 4.506762211646976 4.370580235490717 -11.816518853898176 0 0 0
1714 1 5.810818645234477 6.317594714156154 -12.250889374420932 0 0 0
1694 1 6.402603049191615 5.630002711129997 -9.987678736432734 0 0 0
1715 1 4.198134671522716 6.288182400907402 -10.206347410032157 0 0 0
1782 1 7.879865826667153 7.3382336777359995 -10.484887549528771 0 0 0
1783 1 6.100346726365441 7.447410695032133 -8.325287427624914 0 0 0
1797 1 5.579511475353549 8.203047269425742 -10.71117972532437 0 0 0
1805 1 6.432334697283533 4.431986895891896 -13.79178493203409 0 0 0
1796 1 7.527860752809726 8.031151085236512 -12.639613890271521 0 0 0
1795 1 8.217509934535553 5.49418980225904 -11.900661822541798 0 0 0
1792 1 11.129300423578211 2.7989069546569105 -13.288915713144524 0 0 0
1804 1 8.727617262853641 3.557339704628234 -13.395103455859882 0 0 0
1793 1 9.160216519534096 2.8250835922691024 -11.178565018876952 0 0 0
1692 1 8.631161548819744 4.80887112493194 -9.525380447805341 0 0 0
1780 1 10.53007029944709 4.745130285622402 -11.469934110924187 0 0 0
1830 1 12.861854282084181 3.8303066478913586 -11.277795336502097 0 0 0
1831 1 12.01135805248747 6.542441799556109 -11.936639595554054 0 0 0
1832 1 10.203681767870382 6.6758378687672995 -10.03700795563033 0 0 0
1842 1 9.84937492021183 7.2327780780113855 -12.375720274587241 0 0 0
1829 1 12.539439656789074 4.701945469898764 -13.641337939855637 0 0 0
1820 1 12.312884510645546 5.782502862776504 -9.639892477046189 0 0 0
1766 1 10.803573010174961 4.0462308283174835 -9.142007953010705 0 0 0
1765 1 13.160833419061365 3.391833972026923 -8.799491684669313 0 0 0
1822 1 12.299466463074769 8.062571706685805 -8.16144869947453 0 0 0
1244 1 13.703064916302392 7.535782567457954 -10.115443044739227 -1 0 0
1365 1 -10.403774793581217 8.503844100365662 -9.834173036100687 0 0 0
1385 1 -12.718982327921813 9.348099956394456 -10.24605038279119 0 0 0
1522 1 -10.853457466486496 9.287906071443043 -12.317757478385616 0 0 0
1523 1 -11.440219445656927 11.156130089341996 -10.896699013881587 0 0 0
1648 1 -11.580080840586335 12.125277293122789 -13.154867648520113 0 0 0
1524 1 -12.971040499542863 10.236079057551908 -12.813201397614417 0 0 0
1369 1 -13.087129744706944 11.43714539165127 -8.924030699234377 0 0 0
1386 1 -13.571388262476098 12.139923106055104 -11.373769270445099 0 0 0
1647 1 -9.453534930652253 11.102717045244049 -12.81860183333082 0 0 0
1367 1 -9.920902272902643 11.92012930784665 -8.613845819750283 0 0 0
1512 1 -9.883018810607462 13.018709613291271 -11.214828319467745 0 0 0
1510 1 -9.356164088104297 10.372841529718421 -10.314181474279792 0 0 0
1525 1 -11.761135867737334 13.181160694693379 -9.437246868588536 0 0 0
1521 1 -8.598204791808733 8.480180843400309 -11.919356473482816 0 0 0
979 1 -13.816935481116252 12.942405219457907 -13.690875662651875 0 -1 0
1507 1 -4.736067681275838 8.618193361180179 -9.414779662017054 0 0 0
1627 1 -5.593111060384601 11.448525367041256 -10.170133125778849 0 0 0
1639 1 -4.854891479073908 9.481214464746849 -11.7237971827561 0 0 0
1640 1 -7.01538337176563 9.55418659890616 -9.88215564586869 0 0 0
1646 1 -7.115068906426346 10.275172731268807 -12.255974702123822 0 0 0
1641 1 -5.765540325671875 12.079652850177382 -12.605672494242057 0 0 0
1642 1 -7.763761885928228 12.061481242227877 -10.731607692131927 0 0 0
1489 1 -6.103649937525913 13.298776895961993 -8.693425670160149 0 0 0
1625 1 -3.249966777081763 10.577438092579246 -9.921913335193448 0 0 0
1643 1 -7.971694226924597 12.914631214179547 -13.193768477217771 0 0 0
1743 1 -3.554054713864234 11.278772205915633 -12.263345129794327 0 0 0
1108 1 -3.9692516372172832 13.251713528817763 -10.593623138196211 0 -1 0
1509 1 -7.5832319611499654 11.254204253084485 -8.366521812822363 0 0 0
1742 1 -3.028883341382139 9.401240166736969 -13.769914975440864 0 0 0
1626 1 -3.8489466012147027 12.535201786501172 -8.278523302528999 0 0 0
1638 1 -2.75837053311872 8.600568605676326 -11.33681154197301 0 0 0
1811 1 -2.030313288441521 13.167340376631817 -12.640164221518273 0 0 0
1601 1 1.3444360014058603 9.093329378441947 -9.183159551505522 0 0 0
1737 1 -1.6824941358240402 12.353968181412732 -10.23813792675087 0 0 0
1624 1 -1.0334768120382858 9.71269729544812 -9.51033819982227 0 0 0
1733 1 0.8708538416335649 9.645423953195692 -11.433205769180212 0 0 0
1623 1 -1.3179854348121829 10.484065635750792 -11.845617683098409 0 0 0
1738 1 0.17837551813280506 12.252847617065644 -12.235573166054358 0 0 0
1735 1 0.6406196822739751 11.660299997757225 -9.945160767102877 0 0 0
1720 1 2.016562862390547 13.524459683026766 -10.329715595488146 0 0 0
1734 1 -0.8764231832015952 8.560526828430746 -13.261651778791029 0 0 0
1721 1 -0.00889595226503026 13.591584079356718 -8.45680476218582 0 0 0
1736 1 2.4598964471310083 11.582025429558438 -11.987238650084269 0 0 0
1696 1 3.643979032370119 8.16879462176696 -8.724116403706406 0 0 0
1718 1 2.9025366178178196 10.893922524731686 -9.681367310025573 0 0 0
1807 1 2.7820857146831486 9.589266937395294 -13.47474342949103 0 0 0
1716 1 3.310021870852715 9.030785541828568 -11.187702932636839 0 0 0
1806 1 5.166758311615585 8.961718568234875 -13.104109365683396 0 0 0
1801 1 4.2731371093819135 12.669088553832413 -9.97268735364778 0 0 0
1784 1 7.068137337974747 10.006051902189117 -11.260280132985557 0 0 0
1799 1 4.830280221384882 10.834575131929185 -11.597005034025468 0 0 0
1845 1 6.246717147971079 12.714561524155432 -12.01078355460751 0 0 0
1786 1 5.1224505981057185 10.024717722170902 -9.200634297546337 0 0 0
1836 1 6.506744307165299 11.967082927418268 -9.59887863601812 0 0 0
1771 1 7.4781038510470665 9.428142589793005 -8.82877886566128 0 0 0
1798 1 6.673029708713219 10.697482339512788 -13.471826657210322 0 0 0
1800 1 4.003843264871552 13.374101149792864 -12.28096963114639 0 0 0
1859 1 13.549291982071537 8.444279456823171 -12.311215961063546 0 0 0
1835 1 8.513958032600335 11.833597253242157 -11.779567432338544 0 0 0
1821 1 11.593888817887407 8.496509407050688 -10.53853697579594 0 0 0
1825 1 8.936194009112633 11.286601128426465 -9.473788154424692 0 0 0
1843 1 9.009592854040136 9.882826779661535 -13.333512345818441 0 0 0
1834 1 9.316521690849179 9.230927158003912 -10.974770011936181 0 0 0
1833 1 11.360659947598812 9.16638007386003 -12.709969562109464 0 0 0
1855 1 12.16861562591054 12.916812871198545 -11.865538180317595 0 0 0
1860 1 12.763486246846213 10.993182611506498 -13.340046967932684 0 0 0
1861 1 10.746144102930526 11.136582599402598 -11.315023828215466 0 0 0
1854 1 12.569240516022855 12.043265020066098 -9.357242641534963 0 0 0
1823 1 10.984233445830437 10.348334978952686 -9.071647567895273 0 0 0
1863 1 10.457250735393334 13.022135638305873 -9.840126344923123 0 0 0
1853 1 13.013929685567064 10.295511608428907 -10.982952695179938 0 0 0
1769 1 9.738123561375353 8.486030515879236 -8.57200556364096 0 0 0
1865 1 10.595535295517163 11.790761586498771 -13.653129885046479 0 0 0
1852 1 13.502893699431336 9.896965093131683 -8.607247998708678 0 0 0
1862 1 9.979088581596567 13.669510966366076 -12.266000633212109 0 0 0
1744 1 -4.342086552355603 13.882017961052398 -13.085788848105404 0 0 0
1122 1 -6.330401383925323 13.862487421121305 -11.237668738545644 0 -1 0
1511 1 -8.339875592675007 13.930088603112534 -9.233908920963966 0 0 0
1837 1 8.154174119986305 13.826340048071017 -10.09779495916041 0 0 0
1867 1 14.032151787854694 13.955493107981024 -9.80802644118421 0 0 0
976 1 -11.163309326908715 -11.847835815225956 -7.994050983252699 0 0 0
946 1 -11.920758974986487 -10.096612077557793 -6.51710932885605 0 0 0
971 1 -9.504158808096694 -10.713596685146353 -6.061976732925846 0 0 0
964 1 -11.543484422386893 -10.695634725573285 -4.175946102224746 0 0 0
941 1 -13.10067365061439 -12.813646879264256 -3.5455746221692532 0 0 0
1014 1 -9.09232554968755 -11.366045311670476 -3.7449050492514537 0 0 0
970 1 -8.819962140207663 -12.467888025987339 -7.491248702459693 0 0 0
944 1 -11.112527123535575 -12.575328573338666 -5.7623722817355585 0 0 0
1813 1 -13.506099956117607 -12.045094379980169 -6.006822633128 1 1 0
963 1 -10.742377083792706 -13.324155372078785 -3.2182601804033943 0 0 0
1016 1 -10.066185131302024 -8.832757041850465 -4.614637187098717 0 0 0
969 1 -8.728899148548084 -13.235283965247199 -5.229472943609904 0 0 0
1346 1 -12.961623731262954 -13.844119701038714 -7.600579698390906 0 1 0
965 1 -12.102466777771895 -8.840169749187918 -2.68822922002828 0 0 0
1025 1 -7.3733252942492085 -10.532174670312871 -8.108030662483028 0 0 0
1111 1 -3.5893020077765634 -9.458550976817914 -8.078955050349142 0 0 0
1001 1 -7.76185130777463 -9.370512756825299 -4.251788737249177 0 0 0
962 1 -7.1048357994935385 -11.248347830683217 -5.662097279727261 0 0 0
1024 1 -5.107745400723205 -11.169290009591874 -7.698484172865915 0 0 0
1012 1 -4.796162550885477 -11.933624822582189 -5.312532492909069 0 0 0
1013 1 -5.593346942138027 -9.320429437876495 -6.113873297971415 0 0 0
1095 1 -3.2848758256030326 -10.14949883523122 -5.747113630091352 0 0 0
953 1 -5.273080986169148 -10.072995482332198 -3.8517952232673895 0 0 0
961 1 -6.792229403974053 -12.067607600980654 -3.3509861755972654 0 0 0
1491 1 -6.469003543157015 -13.127631087770695 -7.169934545013204 0 1 0
1026 1 -7.90160611699096 -8.664555779362633 -6.465255128215483 0 0 0
998 1 -4.441933580984765 -12.65826623069757 -2.8761321753728097 0 0 0
1628 1 -4.283690410880817 -13.84686503895637 -6.710655601439654 0 1 0
1077 1 -3.01286575496302 -10.925803039020385 -3.344588698396919 0 0 0
1322 1 -8.35710620998498 -13.865084654633874 -2.9709363669668925 0 1 0
1468 1 -6.381698099689138 -13.98086610058424 -4.891653592623802 0 1 0
1011 1 -2.7326473959015143 -12.079869160605067 -7.1847258432216154 0 0 0
1094 1 -1.252647911174627 -10.212550604991613 -7.691960503440285 0 0 0
1076 1 -2.4408241477753805 -12.767357055671257 -4.9829551516871575 0 0 0
1189 1 1.0517385081491177 -10.813635468799703 -7.266423981096675 0 0 0
1165 1 1.4469266050570102 -11.406887452369908 -4.9264275814367 0 0 0