LAMMPS data file via write_data, version 2 Aug 2023, timestep = 0, units = metal

1862 atoms
3 atom types

-13.954022675663337 13.954022675663337 xlo xhi
-13.87301946358024 13.87301946358024 ylo yhi
-14.08158407472129 14.08158407472129 zlo zhi

Masses

1 55.847
2 1.008
3 1.008

Atoms # atomic

224 1 -12.298935664501952 -11.523756169934018 -13.587471919587527 0 0 0
978 1 -13.775212060057216 -0.9228473479045078 -9.97931275081364 1 0 0
582 1 -6.59238098682698 -0.05262045512286839 -3.8104709614964314 0 0 0
157 1 -9.886038695304883 -12.318035449889843 -12.604361525379506 0 0 0
377 1 -7.431555402697277 -11.107467248267547 -12.653172876131208 0 0 1
158 1 -7.847551238418858 -13.219437670178813 -11.634660436148915 0 0 0
437 1 -6.114295667593714 -13.345526346504736 -13.498216937444141 0 0 1
123 1 -5.400659202254699 -11.862618443833515 -11.70833374145789 0 0 0
447 1 -3.66144561616505 -12.099500179961472 -13.409193967408646 0 0 1
90 1 -1.5209270041757232 -12.96114344007457 -12.39919698524182 0 0 0
467 1 -1.178913696091934 -10.690942270994842 -13.482385769320205 0 0 1
966 1 -13.5442892328801 -9.194597869797324 -12.86865099556618 1 0 0
194 1 -11.377070444666247 -9.8836224850509 -11.725517658025316 0 0 0
200 1 -11.059726913818697 -7.795885128447311 -12.914840013346398 0 0 0
1247 1 -13.274215872632848 -6.924944999633507 -13.866714538739085 1 0 1
191 1 -9.715192941441426 -10.150215102828327 -13.59745681077522 0 0 0
161 1 -8.897179938648119 -8.641178363670164 -11.903664170762212 0 0 0
160 1 -7.204571249576717 -8.789842755604141 -13.64555666071448 0 0 0
167 1 -6.244994793508796 -7.181059529720929 -11.839299367198011 0 0 0
126 1 -5.09462739945036 -9.595704025830099 -12.702920582601816 0 0 0
279 1 -4.778449676843529 -7.355953624655615 -13.6703878111622 0 0 1
89 1 -2.87109615492062 -10.533839104187521 -11.67285042270903 0 0 0
289 1 -2.6546636973533566 -8.252611279394888 -12.723162550639822 0 0 1
92 1 -0.3930267698169079 -9.093839745533742 -11.745857512208914 0 0 0
227 1 -12.401065424154032 -5.264110942476696 -12.034819114332416 0 0 0
206 1 -10.975052304094584 -3.5725053276704344 -12.61064141608669 0 0 0
199 1 -10.524447232785066 -5.560311892717731 -13.826159025428856 0 0 0
166 1 -8.533564544714098 -6.450889111201343 -12.83910403881384 0 0 0
174 1 -9.053737447523973 -4.2027375960399525 -11.719705704282566 0 0 0
173 1 -6.1982696644496995 -4.894711753881149 -12.902877994754549 0 0 0
140 1 -3.947135935872314 -5.716818189357541 -12.021614923284677 0 0 0
358 1 -3.8191244159979316 -3.5319876151279193 -13.15425967431047 0 0 1
106 1 -1.4129570246209049 -4.413171580284505 -12.135418268976903 0 0 0
99 1 -0.13300162841015073 -6.830711443582265 -12.8712959256747 0 0 0
98 1 -2.352978904333007 -5.9541375271693475 -13.886106141149622 0 0 0
234 1 -12.06864852440282 -1.1850704076236642 -11.70283692810493 0 0 0
371 1 -12.911646826202107 -2.8168300463240783 -13.408485839784708 0 0 1
213 1 -10.745656275629154 -1.504851215256318 -13.817344362298016 0 0 0
67 1 -13.928107304123401 -12.836955648982903 -1.6666803891130932 0 0 0
147 1 -8.724239918563395 -2.1108290598969983 -12.901401707156282 0 0 0
180 1 -7.4935035664987515 -0.16810383641120907 -13.449155336331668 0 0 0
23 1 -4.894848082257457 -2.8674732610636866 -1.944638545745839 0 0 0
139 1 -6.671991093466958 -2.771613063332749 -11.998167347210199 0 0 0
146 1 -5.184730357628883 -1.0540056705803416 -12.5204984911637 0 0 0
308 1 -1.420960624171279 -2.22751137588193 -13.168381024051488 0 0 1
84 1 -0.5818309560978019 -0.4297961550112106 -11.526659719275898 0 0 0
105 1 -3.0569231921972957 -2.0004859272452915 -11.347566564401456 0 0 0
226 1 -13.336211140804688 -11.889994204508344 -8.918109206015004 0 0 0
193 1 -11.669959022400688 -12.035679156787076 -10.725046991857166 0 0 0
196 1 -10.995249508087152 -10.541059593600844 -8.874020653162884 0 0 0
2 1 -4.4690462370293265 -1.0177316523228939 -0.4242115108662219 0 0 0
159 1 -9.467295758023054 -12.988591599442405 -9.830864007182095 0 0 0
195 1 -9.241678010598218 -10.757945515063383 -10.684495422422465 0 0 0
162 1 -7.033064715860845 -11.656933397098662 -9.896507517799709 0 0 0
130 1 -4.862189235490504 -12.572182705769148 -8.922943217518103 0 0 0
91 1 -3.275505320804367 -12.740252060589967 -10.617055227610521 0 0 0
94 1 -0.7355764480816855 -11.306209305381365 -10.742460851948156 0 0 0
95 1 -2.4033462844822804 -11.124348699953977 -8.991347462840501 0 0 0
604 1 -1.012589017206965 -13.52217847280718 -9.694263505350898 0 1 0
201 1 -12.704524122009175 -7.509734946595047 -11.047209407407056 0 0 0
989 1 -13.089993620741572 -9.724056211278391 -9.980234511600672 1 0 0
202 1 -10.558720006812207 -8.341568299611371 -9.991806282126255 0 0 0
169 1 -8.38190992740963 -9.210493786633041 -9.011993885058954 0 0 0
168 1 -8.042483874035291 -7.100986025792815 -10.098845077914175 0 0 0
128 1 -4.565237286317146 -10.312042517609774 -9.927224269015786 0 0 0
127 1 -6.702329421971295 -9.417828592787341 -10.86068567617256 0 0 0
135 1 -5.802754753683203 -7.900917294081915 -9.04901833670717 0 0 0
133 1 -4.132488692824744 -8.08015982971621 -10.818374903109717 0 0 0
93 1 -2.062411067303355 -8.906244277424346 -9.956481025185845 0 0 0
231 1 -12.022513888015931 -5.912237454016339 -9.177531047492835 0 0 0
208 1 -11.452039162909188 -3.7607508214830503 -10.23270158779619 0 0 0
207 1 -10.402313146983321 -6.1224744874238475 -11.056227909288543 0 0 0
175 1 -9.33618742718918 -4.503547619656835 -9.333400872376501 0 0 0
132 1 -7.258731544393933 -4.993322201538351 -10.742613418057829 0 0 0
142 1 -5.227050047553565 -5.776953770535039 -10.032805590811202 0 0 0
107 1 -4.874634355027611 -3.5313186598260824 -10.934159116409859 0 0 0
100 1 -1.7051787848686022 -6.6586561342827535 -11.08719511087423 0 0 0
101 1 -3.280704682513722 -6.520927109557949 -9.201748440492706 0 0 0
77 1 -2.923493838502523 -4.434897894284527 -10.206511617586003 0 0 0
954 1 -0.9008869965245001 -5.070640031602572 -9.245291165744685 0 0 0
210 1 -13.201036406708923 -3.4237272775404968 -8.651662936377981 0 0 0
216 1 -11.808641124527448 -1.4478263730025418 -9.125212254472338 0 0 0
225 1 -13.88935713041105 -11.3753691529764 -11.712027481496293 0 0 0
684 1 -7.658232250733883 -0.5660063095130479 -11.207564269688255 0 0 0
215 1 -10.142337264549747 -2.0295950609466207 -10.982573469307177 0 0 0
182 1 -8.172444713228177 -2.574217258473693 -10.006788283752744 0 0 0
183 1 -9.38827153603411 -0.2002982882000186 -9.385886482025992 0 0 0
141 1 -6.263457970484746 -3.4429839400548765 -9.054780559259598 0 0 0
148 1 -5.799914511325538 -1.2827624708322851 -10.165732010201804 0 0 0
115 1 -3.8686848383896937 -2.013819709081462 -9.12693261169137 0 0 0
114 1 -0.6834014247899809 -2.7434989081139385 -10.39013292901331 0 0 0
113 1 -2.1533748700380677 -0.39795716917912927 -9.545503606148044 0 0 0
198 1 -12.823342351210378 -12.492906732615223 -6.148265894617875 0 0 0
197 1 -11.150092442279858 -12.772276127583249 -8.02580470083863 0 0 0
165 1 -10.408376975454082 -11.216140234669243 -6.2647357437977025 0 0 0
163 1 -8.68109110045523 -11.416627890453894 -7.988298023957396 0 0 0
549 1 -9.019499519998273 -13.54758669020969 -7.106581390764479 0 1 0
131 1 -6.610761049115654 -12.25045116545919 -7.054251567971265 0 0 0
24 1 -4.321161400933374 -13.155364013556243 -6.008161759440602 0 0 0
97 1 -4.151938921964609 -10.869795163463962 -7.18436449481235 0 0 0
945 1 -0.136148062600288 -11.876515235256388 -8.012251161207452 0 0 0
96 1 -2.6429790883475572 -13.297767156834732 -7.880588936283939 0 0 0
75 1 -1.8875209754403741 -11.674429704419659 -6.251761269987645 0 0 0
967 1 -12.68858290744235 -10.383812473717558 -7.0996413715221145 1 0 0
228 1 -12.193932544593983 -8.166713759940553 -8.214690985414835 0 0 0
22 1 -3.264721815829807 -5.755209416601874 -0.0951366786095118 0 0 0
204 1 -10.144441512197977 -9.019725521148217 -7.215247413663343 0 0 0
171 1 -7.952965987945623 -9.704645002190059 -6.321697444257972 0 0 0
136 1 -7.601063751679998 -7.631345686243429 -7.374999959935417 0 0 0
129 1 -6.223446382828559 -10.033331396823575 -8.11371173586268 0 0 0
102 1 -3.6836945262200107 -8.662182319430865 -8.12705854654953 0 0 0
137 1 -5.389557835038319 -8.552321563515633 -6.347464820621822 0 0 0
78 1 -1.2616304574209884 -7.354084995891551 -8.251576273800456 0 0 0
103 1 -1.5352414374951504 -9.547566348850726 -7.188704440235214 0 0 0
110 1 -2.8467551835846905 -7.177342799092057 -6.466422051637574 0 0 0
203 1 -11.60265876250115 -6.415569857223053 -6.520467443969695 0 0 0
209 1 -10.965533631195928 -4.342013512281698 -7.452398392910842 0 0 0
229 1 -12.983866308729578 -3.964739167471718 -5.840476345100919 0 0 0
976 1 -13.620168255805595 -5.667712319422202 -7.634492151104961 1 0 0
134 1 -7.092748430326156 -5.43314035865791 -8.31544109562412 0 0 0
170 1 -9.762144498760925 -6.66643753337028 -8.219422972916117 0 0 0
176 1 -8.805042649490677 -5.1460846640613305 -6.474895022988904 0 0 0
108 1 -4.345860818697544 -4.118390985603595 -8.088999622293418 0 0 0
109 1 -6.115055324590323 -3.9038225468068717 -6.62801323525577 0 0 0
143 1 -5.007918090439043 -6.342792833910686 -7.368907551435231 0 0 0
82 1 -2.3800805508046974 -5.042011547778687 -7.459653678761756 0 0 0
955 1 -0.32678968205629566 -5.643751532620319 -6.391160393272042 0 0 0
237 1 -13.565043266804645 -1.4196280609932082 -7.374005607820088 0 0 0
221 1 -11.715619482608155 -2.2251961406137735 -6.464379056472068 0 0 0
50 1 -6.829143008782703 -2.484644020796111 -0.3342307799630255 0 0 0
149 1 -7.491064678775833 -1.080904230381197 -8.39625367849224 0 0 0
217 1 -9.954444790768068 -2.3138576158656896 -8.189269329992735 0 0 0
150 1 -8.08538162037715 -3.275167536410178 -7.513596101632216 0 0 0
188 1 -8.963383987413868 -0.7215877491782372 -6.576764490785037 0 0 0
154 1 -5.590578075089031 -1.845976176862612 -7.339665727257786 0 0 0
155 1 -4.818882929891448 -0.31994578735561596 -5.540335987685323 0 0 0
117 1 -3.62099957373424 -2.710477446284326 -6.355493090389031 0 0 0
116 1 -1.999795415048581 -2.726782936913006 -8.128265534153662 0 0 0
120 1 -3.057596714829881 -0.4316295145478186 -7.321860199280522 0 0 0
86 1 -1.1792269991938777 -1.143081617432081 -6.420697542447822 0 0 0
65 1 -12.324910042644827 -12.987852041087796 -3.4755099966231757 0 0 0
51 1 -12.07653760162211 -10.938515595091712 -4.508115288890114 0 0 0
41 1 -10.752180906454488 -13.374127779376053 -5.273914961052915 0 0 0
415 1 -9.903123238978385 -11.715411511081154 -3.5177944579752722 0 0 0
40 1 -8.251560260574657 -11.936732728986584 -5.321977957368945 0 0 0
28 1 -7.4753500969479845 -10.373358605288072 -3.5212663272761713 0 0 0
25 1 -5.979416128179827 -12.877618505082856 -4.236062106025624 0 0 0
27 1 -5.736104298179855 -10.704370969672476 -5.352877320956269 0 0 0
510 1 -3.903396785931273 -13.652842089698803 -3.273807318290002 0 1 0
12 1 -3.508950841867751 -11.435564198947944 -4.370215867437567 0 0 0
5 1 -1.4188839704332263 -12.314434591557964 -3.4158363779805203 0 0 0
88 1 -2.4885910311424215 -1.45311267703784 -2.108124749022261 0 0 0
54 1 -11.802469264953583 -8.727131327005738 -5.4655235600009515 0 0 0
972 1 -13.413558116895075 -8.41277204218667 -3.682288346740309 1 0 0
212 1 -10.962095131934802 -7.028124844142903 -3.8267499340012368 0 0 0
211 1 -9.192112030432606 -7.376255511466097 -5.47519542565092 0 0 0
172 1 -9.610487619357201 -9.412102471500845 -4.450153136045072 0 0 0
138 1 -7.076318489559462 -8.150645964560495 -4.49515538612328 0 0 0
58 1 -8.942214593688565 -8.008132098327204 -2.7539496315312633 0 0 0
31 1 -4.971278031406749 -9.178949582915383 -3.6407541778058334 0 0 0
104 1 -3.1942419880935073 -9.334723128962807 -5.437783014937489 0 0 0
79 1 -0.6534788404269545 -7.84028296424424 -5.425668268186982 0 0 0
14 1 -1.0523937631331375 -10.044515554067278 -4.448294841564028 0 0 0
18 1 -2.361435616848656 -7.7401042365012485 -3.65223682396692 0 0 0
232 1 -13.138411686210468 -6.156630088154022 -4.664996905253465 0 0 0
219 1 -12.254291113326603 -4.524025959270105 -2.9596132097077668 0 0 0
177 1 -10.75140903645982 -4.73542034103744 -4.911066883301443 0 0 0
186 1 -8.424396367114056 -5.897117427484544 -3.691153119951405 0 0 0
152 1 -7.848488196604622 -3.8668905220271768 -4.803002605519367 0 0 0
178 1 -6.650525401275539 -6.030704274734781 -5.565531557255987 0 0 0
144 1 -4.604579450579253 -6.985374305406625 -4.538452718474456 0 0 0
111 1 -5.735333715683856 -4.650131675181509 -3.7695702487773417 0 0 0
118 1 -4.147208513151272 -4.8214665016182146 -5.504548641204174 0 0 0
83 1 -1.9930256815299714 -5.469434443987174 -4.576317743276311 0 0 0
218 1 -12.07933415923563 -2.44400271963101 -4.1898947947119165 0 0 0
184 1 -9.60113773892153 -2.656087530997649 -5.586045052054336 0 0 0
692 1 -10.658375900917232 -0.6277688465855285 -4.569617369422943 0 0 0
185 1 -9.810306724091324 -3.2461105551733844 -3.1236910896637795 0 0 0
189 1 -8.663989577031408 -1.295868089950936 -3.7839762303981264 0 0 0
151 1 -7.195096944394252 -1.715539583804313 -5.598984135689147 0 0 0
119 1 -5.293893205480451 -2.4164252354770124 -4.656403445195316 0 0 0
36 1 -6.907284309813993 -2.347698195714914 -2.978454015023205 0 0 0
156 1 -6.585004590738165 -0.4072374353627808 -1.387982748402857 0 0 0
959 1 -1.480306886521884 -3.5033048674684846 -5.565804182626902 0 0 0
961 1 -0.860001647403875 -1.804599977960276 -3.8337806806682195 0 0 0
87 1 -3.1477332745422526 -3.3438495049033055 -3.7852921287160335 0 0 0
121 1 -2.8355794586385397 -0.9843962708027849 -4.679233040508587 0 0 0
53 1 -11.819518352514168 -13.689005156581265 -0.6790473781564828 0 0 0
55 1 -13.657235311119281 -10.640713347367663 -2.6890461974758573 0 0 0
56 1 -11.522868537196102 -11.515870694659302 -1.7152554601423518 0 0 0
430 1 -9.351975854116642 -12.2593222014929 -0.6250055186181473 0 0 0
42 1 -7.746854538004753 -12.477212046294618 -2.4758399794846913 0 0 0
30 1 -6.87082684210555 -10.836263660039268 -0.7023206522889431 0 0 0
26 1 -5.581481502913377 -13.33413527459644 -1.5007797536691267 0 0 0
29 1 -5.229533997365385 -11.239716655426827 -2.6223726034814536 0 0 0
16 1 -3.0693049689612604 -12.024075290363466 -1.7236229141305248 0 0 0
8 1 -0.8868401073973491 -12.825883842979394 -0.6567305045979381 0 0 0
7 1 -0.6294279048370246 -10.630436313348689 -1.6272581902154197 0 0 0
205 1 -11.271351473428282 -9.257633951484674 -2.7280417281611626 0 0 0
60 1 -13.038701789814173 -8.959330055031497 -1.1078674192229752 0 0 0
59 1 -10.565676831706664 -7.6622983136819975 -1.080919527478807 0 0 0
46 1 -9.028612695331407 -10.202800371183926 -1.614114968502106 0 0 0
941 1 -0.4531454059549844 -2.309314147971273 -1.1947324817910658 0 0 0
44 1 -6.722611485018663 -8.823071102494865 -1.7532761267707304 0 0 0
33 1 -4.45911646957871 -9.56478041523107 -0.9180061856349138 0 0 0
34 1 -4.036391697298855 -7.481816460492789 -1.81129760322243 0 0 0
164 1 -7.343680175388294 -13.725772675867356 -8.824898824160478 0 0 0
929 1 -0.1331358808985037 -8.51606372523747 -2.641416406434921 0 0 0
15 1 -2.850163985394607 -9.798715932066894 -2.607372224236059 0 0 0
19 1 -2.0154012882553864 -8.17145486243159 -0.8208548299756213 0 0 0
69 1 -12.584670485735618 -6.702235477956497 -1.8963127839882556 0 0 0
63 1 -11.795971120185921 -5.259526424597055 -0.31002411908907135 0 0 0
179 1 -10.169205936837054 -5.464515149521802 -2.139516974722662 0 0 0
48 1 -9.370858801247653 -3.9101700449542314 -0.2931018560631653 0 0 0
45 1 -8.030477886738856 -6.323076527493599 -0.9752521693482823 0 0 0
153 1 -7.636852143301435 -4.175184031394508 -2.142289037170727 0 0 0
21 1 -3.7040159588880623 -5.3636562815370485 -2.6277929807938225 0 0 0
145 1 -6.410138525733787 -6.77564856789675 -2.7276603267854025 0 0 0
47 1 -5.520446970656524 -5.051595971087968 -1.1599218005710732 0 0 0
122 1 -4.4733877442549534 -0.765720263846914 -3.0090097996314924 0 0 0
940 1 -1.1657847413739777 -3.952212385745298 -2.8309722598720892 0 0 0
10 1 -2.810208582637765 -3.594004154167026 -1.0257276695422668 0 0 0
9 1 -1.479142042347613 -6.090691263073436 -1.899393244270147 0 0 0
932 1 -0.7431373140399433 -4.41342186886331 -0.08247129675227072 0 0 0
4 1 -11.153977666815376 -0.8046025296284469 -2.2679784786962625 0 0 0
187 1 -11.552824174013303 -3.0066454324580203 -1.3727055601447233 0 0 0
64 1 -13.653301870452852 -2.054186206081548 -2.4185941635274997 0 0 0
981 1 -12.980705932640463 -0.553361896604132 -0.5819964622456784 1 0 0
190 1 -8.964815509130137 -1.634496904849712 -1.3634635546176437 0 0 0
244 1 -12.37258556180435 -13.666855208032842 -12.383000364000594 0 0 1
32 1 -5.955287340293883 -7.149460804539372 -0.1774398297056834 0 0 0
389 1 -8.26698511296451 -4.139510102330728 -13.996478266320581 0 0 1
971 1 -13.910771421316895 -7.976647485447416 -6.535029210448106 1 0 0
1135 1 -0.149844042609935 -0.0603453502144955 -2.000145893212572 0 0 0
230 1 -13.948947633355878 -2.89996877141421 -11.264895635568488 0 0 0
20 1 -2.32126748928923 -10.390177287930769 -0.009932549062117602 0 0 0
429 1 -10.937469930018782 -10.004321374932722 -0.07272287064796856 0 0 0
68 1 -13.548508479197425 -13.398173900649102 1.1458789937016807 0 0 0
43 1 -11.02506746565917 -12.067156203987203 1.197330430868579 0 0 0
57 1 -13.07493898040822 -11.172898299239368 0.09723063378744357 0 0 0
399 1 -9.032121827240333 -12.96795306128011 2.040896675220539 0 0 0
439 1 -8.683174197233594 -10.741487270200638 1.0459273610255462 0 0 0
400 1 -7.249764335364624 -13.119669414319343 0.32648199765115216 0 0 0
17 1 -4.776181942997155 -11.709447541513137 0.11642466246546768 0 0 0
401 1 -6.433560250087333 -11.55067372402189 2.0346654547702183 0 0 0
405 1 -2.6779642683992133 -12.55214926789366 1.0335997178803193 0 0 0
397 1 -0.4376572689074383 -13.361519948387311 2.098209980740249 0 0 0
3 1 -8.335304874424333 -0.02477875654567363 0.3008667204786004 0 0 0
406 1 -1.7605515077546627 -10.91466255364149 2.771173213447243 0 0 0
385 1 -12.50433554934945 -9.717363484411703 1.8721227320358143 0 0 0
386 1 -12.145800195775664 -7.328992851095304 0.7942068987276532 0 0 0
423 1 -0.14097097400071945 -11.168787706109597 0.9897705455797716 0 0 0
698 1 -2.710522104287783 -13.869351228937354 11.18621329000189 0 1 0
356 1 -10.167741583040517 -8.338855107200892 1.8520798363583335 0 0 0
440 1 -7.810915239909421 -9.317364055672783 2.7934893922911126 0 0 0
449 1 -3.9486460429219132 -10.158912333155067 1.902161534492878 0 0 0
438 1 -6.290302248537393 -9.32238373381089 1.0134186444544895 0 0 0
450 1 -5.449220961916415 -7.69151223734816 2.6934516410260745 0 0 0
448 1 -3.759139502451484 -8.0010072922389 0.8526875240984868 0 0 0
459 1 -1.498275702853535 -8.74031194930484 1.8653955710982046 0 0 0
239 1 -13.913834677773409 -7.167645931628936 2.57330701157238 0 0 0
256 1 -11.455257341868588 -5.7083961284086655 2.4700898730739045 0 0 0
245 1 -13.618164953794041 -5.014582372266409 1.5333958576302287 0 0 0
255 1 -11.165148963396078 -3.459366729383351 1.4942679966391594 0 0 0
327 1 -7.600318234483183 -6.9735070516445745 1.6086111624263193 0 0 0
357 1 -9.760648778386185 -6.214912462626615 0.7180451266071977 0 0 0
266 1 -9.010151343657174 -4.343349930590074 2.397414175963272 0 0 0
35 1 -7.261193872416758 -4.666782141256325 0.7056263440237789 0 0 0
328 1 -5.114473648583706 -5.551880267640152 1.6220625796985857 0 0 0
298 1 -3.0061723028310148 -6.36586952769479 2.5706598619821204 0 0 0
458 1 -1.1574007736080034 -6.553191628367737 0.7883524558236239 0 0 0
274 1 -2.5377578704225066 -4.162005782392248 1.6450520236376427 0 0 0
1235 1 -0.38541295146055177 -5.002055738799472 2.4795396427403364 0 0 0
781 1 -13.332223993659586 -2.716640134409559 0.4908338477924836 0 0 0
1633 1 -12.494516767811966 -1.0671347616477753 2.1937467192170796 1 0 0
783 1 -10.762039526771776 -1.3945512659885164 0.3189232467655536 0 0 0
339 1 -8.633416634785423 -2.1694089496352493 1.3180346106808773 0 0 0
265 1 -6.379180961746695 -3.099564993650233 2.3540274564259516 0 0 0
359 1 -6.154057584937276 -0.7924334920836031 1.284142077241535 0 0 0
299 1 -4.698167045590685 -3.344722233787232 0.6059597393125724 0 0 0
280 1 -3.9164614510653983 -1.5617452321891658 2.229124435162655 0 0 0
1 1 -2.245288137555722 -1.8863001506271289 0.5048728272073699 0 0 0
771 1 -1.582058381750791 -0.25614581565629635 2.2063119447999444 0 0 0
426 1 -12.793256648991747 -11.877817556348786 2.972527585822016 0 0 0
432 1 -10.507917109713228 -12.699069887063168 4.027096194259242 0 0 0
427 1 -12.25594604330838 -12.294884146019688 5.6789300905315425 0 0 0
712 1 -8.328450821784836 -13.498242515290222 4.790785605639451 0 1 0
441 1 -8.207331415727328 -11.525054731496548 3.7104301283609384 0 0 0
433 1 -9.698471098822662 -10.92535453229815 5.543464196066212 0 0 0
431 1 -10.423890375189385 -10.546187844778 2.8846784417967353 0 0 0
416 1 -4.280219251970726 -12.249814414939507 2.985723578855781 0 0 0
402 1 -5.94468846782968 -12.11486985629988 4.714153829690003 0 0 0
705 1 -6.813634926745147 -13.635583845712631 2.9746809224323574 0 1 0
417 1 -3.4436825627850496 -10.616957620190172 4.607115437072109 0 0 0
418 1 -3.836297965277401 -12.747301949438521 5.694710200052944 0 0 0
398 1 -2.2208555859505985 -13.08065076161803 3.931135969252596 0 0 0
383 1 -11.968306820896666 -10.197962009133732 4.557961374608434 0 0 0
384 1 -11.795437426403105 -7.97818450622428 3.5403216836909 0 0 0
248 1 -13.364644844773236 -7.727584614333046 5.215791745064722 0 0 0
354 1 -9.553721924416045 -8.855930566260316 4.421834347104086 0 0 0
442 1 -7.286674213486609 -9.675769895483477 5.454597659766984 0 0 0
325 1 -7.272836354736192 -7.558757452825371 4.246157067465761 0 0 0
451 1 -5.660548832314939 -9.921178799151475 3.6527234652665026 0 0 0
452 1 -4.784787204301685 -8.343543331869636 5.300636204486535 0 0 0
461 1 -3.2213655436062396 -8.519152965934296 3.6339059204559323 0 0 0
1304 1 -1.0061323250148924 -9.28349872577419 4.550063571258603 0 0 0
460 1 -0.6973051104398262 -7.111095981360159 3.538969720942271 0 0 0
247 1 -13.088471042203304 -5.508277646873751 4.395469016353525 0 0 0
258 1 -10.774513576509552 -6.444204045402122 5.219451040742621 0 0 0
257 1 -10.601184686102238 -4.1037961854686404 4.240898513450359 0 0 0
355 1 -9.313408423981059 -6.6723453789739855 3.2850405991284948 0 0 0
268 1 -8.550859033823874 -4.959967443383549 5.036671134441816 0 0 0
326 1 -6.728266981720231 -5.279245552616761 3.4671598572977036 0 0 0
296 1 -4.6269680622427725 -5.943603641905054 4.385278145441179 0 0 0
281 1 -4.207358082487042 -3.6913439563794253 3.4362249121976145 0 0 0
267 1 -6.176617189086459 -3.4812842385868805 5.133473981441638 0 0 0
462 1 -2.376109842005201 -6.896436633768581 5.362345834219285 0 0 0
297 1 -2.1466316055288903 -4.762064990682083 4.238215084727644 0 0 0
331 1 -12.792151354482323 -3.208733836361919 3.285573853149449 0 0 0
373 1 -11.989465523356193 -1.7102737286340037 5.0287167324269415 0 0 0
330 1 -10.292387623387327 -1.9657513944062686 3.111293725681163 0 0 0
340 1 -7.977942849005066 -0.5715020606502463 3.081832026923605 0 0 0
341 1 -8.203478849445034 -2.7681670474090474 4.001223368782645 0 0 0
390 1 -9.678490874562383 -0.3647184415566844 4.911753358048186 0 0 0
360 1 -5.778013483504251 -1.3758754444771863 4.140978784812164 0 0 0
282 1 -3.497852373564532 -1.9484125421542284 5.0013418233749345 0 0 0
300 1 -1.7811304074165122 -2.4392775463120504 3.3377975117742107 0 0 0
301 1 -0.9125440684418251 -0.7538843144466831 4.828916061223447 0 0 0
381 1 -11.476073577637418 -10.766710541922691 7.346656256760552 0 0 0
410 1 -11.72771648193242 -12.958220041623456 8.340538213240068 0 0 0
369 1 -1.8780762106598399 -1.6624830151048346 12.14132426698315 0 0 0
434 1 -10.031610790256266 -13.086155109348274 6.646930457018614 0 0 0
443 1 -7.570232118589534 -11.84832632079067 6.512024590716576 0 0 0
435 1 -9.316255586593893 -11.478282146702112 8.353744193330835 0 0 0
403 1 -5.476940499447974 -12.561211516525903 7.621960382594507 0 0 0
1303 1 -1.3847094555094301 -11.48558001650403 5.694838636067454 0 0 0
419 1 -2.8917584813014106 -11.268036309494816 7.513122385530272 0 0 0
1696 1 -1.7383531217232484 -13.649989666322357 6.7618845521199535 0 1 0
1301 1 -0.742453509371229 -12.022039870527074 8.471634126924181 0 0 0
699 1 -3.298776366169559 -13.355650230783032 8.400261423978366 0 1 0
240 1 -12.946546480748912 -8.236751924109226 8.059571305554142 0 0 0
411 1 -13.731957080733194 -9.752918256713201 6.411348855238282 0 0 0
382 1 -11.204391280937074 -8.570281923958742 6.254525761818185 0 0 0
352 1 -9.003852177483928 -9.369460827106954 7.30885636239711 0 0 0
353 1 -8.808444587215241 -7.2073719649128 6.198668549527563 0 0 0
453 1 -5.104503823457138 -10.383585458678136 6.427258638117165 0 0 0
444 1 -6.755822649597526 -10.170617935501163 8.167090703367291 0 0 0
323 1 -6.492124906555006 -8.012824657062133 7.020970148752175 0 0 0
454 1 -4.234251981473594 -8.728723528181135 8.055211243574158 0 0 0
463 1 -2.568969475725183 -9.072113238270344 6.45366246435824 0 0 0
1230 1 -0.20052622888483995 -7.669133119725534 6.452252133870603 0 0 0
1302 1 -0.4646251670626267 -9.831168877817671 7.420368482532341 0 0 0
464 1 -1.9298911863793613 -7.3281607821462575 8.09636850054464 0 0 0
313 1 -12.54305758681961 -6.108744091797588 6.987261362574509 0 0 0
312 1 -12.206230576092429 -3.939185120793379 6.0181607305178435 0 0 0
249 1 -10.325318814784136 -6.903336612070506 7.978743526108287 0 0 0
333 1 -10.160384568595449 -4.69672905051671 6.9482208074056775 0 0 0
259 1 -7.966962265977079 -5.4070279915837745 7.822282089990436 0 0 0
324 1 -6.373973831245576 -5.7494368058579415 5.87955144932779 0 0 0
269 1 -5.583665346434373 -4.0996096606718595 7.738975096096381 0 0 0
294 1 -4.204064661392602 -6.564583361425796 7.001289848278274 0 0 0
283 1 -3.8682055690438766 -4.325540280491561 6.02676965093106 0 0 0
295 1 -1.732443578532413 -5.100141784029049 6.84714062953732 0 0 0
1358 1 -13.68593690788308 -1.3826582551154463 6.722726001876927 1 0 0
374 1 -11.617222293892105 -2.2273423239688928 7.712779427855741 0 0 0
342 1 -7.409152913829049 -0.8845364495043526 5.767695231831366 0 0 0
332 1 -9.797781033173086 -2.4733562316997126 5.876561629841829 0 0 0
391 1 -9.054524516734531 -0.8361925989074521 7.655071769620703 0 0 0
343 1 -7.823194940701397 -3.191750086752018 6.852172928089162 0 0 0
361 1 -5.365402800799771 -1.7557197710877883 6.718901309448219 0 0 0
284 1 -3.1953664867189637 -2.7212341802865883 7.637831731521532 0 0 0
367 1 -2.6240861756033667 -0.4772792430173851 6.76703056435778 0 0 0
302 1 -1.3342498617015455 -2.916325236548836 5.864503363818015 0 0 0
303 1 -0.5694249273911964 -1.3504761030883472 7.775152285057489 0 0 0
1205 1 -13.535147309061784 -12.515282689268663 10.147175208745649 1 0 0
252 1 -11.072716674919175 -11.30283114762382 10.03593391764016 0 0 0
409 1 -13.12270061130049 -10.3827153025665 9.112248150195994 0 0 0
242 1 -11.362278699328126 -13.37954568678366 11.229847070533664 0 0 0
379 1 -8.952416178257227 -12.05606429900888 10.993599983462799 0 0 0
445 1 -7.251110068608683 -12.264841428954139 9.26459504082001 0 0 0
1204 1 -13.93437380174962 -12.029266023959575 7.442702461444563 1 0 0
404 1 -4.950377627527169 -13.107545686374149 10.154758237206115 0 0 0
455 1 -4.564667137806884 -10.86892847858976 9.120194148136436 0 0 0
350 1 -6.458334079046836 -10.514830559990427 11.049508876706076 0 0 0
420 1 -2.5094538249473093 -11.801503699808972 10.168924767812308 0 0 0
421 1 -0.3486277528250348 -12.508961069656515 11.259735727650229 0 0 0
1308 1 -13.735004399751515 -6.398690461040982 11.408670716066924 1 0 0
317 1 -12.240683762333504 -8.77057818825551 10.78407345379294 0 0 0
250 1 -10.650332157166309 -9.040583721954748 9.04292059787178 0 0 0
251 1 -9.836141990672832 -7.488230929155992 10.748013671353727 0 0 0
380 1 -8.514968355295279 -9.85367934729485 9.962129363428277 0 0 0
260 1 -8.183990196385032 -7.674608674651953 8.981831636804463 0 0 0
351 1 -5.996300304898044 -8.443342594559809 9.838624702688639 0 0 0
321 1 -3.9492316404041823 -9.36816625395496 10.858694903154058 0 0 0
322 1 -3.5635697225748437 -7.190379387398755 9.921704799677725 0 0 0
465 1 -2.1918017125241622 -9.604945813038569 9.120150284369112 0 0 0
292 1 -1.482157124752412 -7.842538721048753 10.83755926111248 0 0 0
394 1 -5.7883597733152925 -0.29294069615728446 13.04232786360952 0 0 0
315 1 -12.084874935111035 -6.719118872085523 9.62242691729479 0 0 0
314 1 -11.756191732912995 -4.422998221017707 8.775336253986593 0 0 0
1307 1 -13.498696226297767 -4.249919146650509 10.561927639998475 1 0 0
335 1 -9.48967164167428 -5.366620775431274 9.74172395838056 0 0 0
261 1 -7.335566333737571 -5.961872999395759 10.617525702294389 0 0 0
345 1 -7.16529250274517 -3.7717313584777 9.642684595288804 0 0 0
270 1 -5.803707941330723 -6.221363912941648 8.788426197852024 0 0 0
276 1 -5.003342530661149 -4.517327995683049 10.493381782504342 0 0 0
285 1 -3.329251899589419 -4.849710698196471 8.74123609595616 0 0 0
293 1 -1.1771169033077147 -5.797160136949886 9.721344819665907 0 0 0
304 1 -0.9461089794298339 -3.5196793562469164 8.54938705547906 0 0 0
1359 1 -13.359127866338445 -2.10321239551687 9.504472233945778 1 0 0
376 1 -11.221680193628693 -2.7635916461288943 10.48707872844353 0 0 0
375 1 -10.930580702906108 -0.6520806955851608 9.334591767336947 0 0 0
395 1 -12.72047572362569 -0.2936302719124999 11.237856751114906 0 0 0
334 1 -9.447869345910728 -3.0574067123309785 8.691397544188534 0 0 0
392 1 -8.669504344193383 -1.2377988881226685 10.400663800522649 0 0 0
344 1 -6.983774290250605 -1.5076310761083462 8.522768326528857 0 0 0
362 1 -4.50340964559973 -0.2283197811126687 8.521523931612103 0 0 0
363 1 -4.725406342794805 -2.4700724791911135 9.509648511136005 0 0 0
364 1 -3.9666713777031166 -0.7272175001013821 11.295763781305647 0 0 0
366 1 -3.57281251931275 -1.4042897365531246 14.00154321832825 0 0 0
305 1 -0.17781391166048266 -1.8340514223486117 10.374898441888861 0 0 0
286 1 -2.5777959450509336 -3.3799036350744807 10.435337726773225 0 0 0
368 1 -2.3879209718550385 -1.1325528860668843 9.507743942254072 0 0 0
192 1 -12.955459293576915 -13.172818530247355 12.979474062832724 0 0 -1
243 1 -12.66453031893966 -10.82376556198898 11.873351556468288 0 0 0
254 1 -10.61846605716225 -11.69944531912068 12.841696140949436 0 0 0
346 1 -6.426432909684151 -1.9957663064677522 11.330696994586846 0 0 0