LAMMPS data file via write_data, version 2 Aug 2023, timestep = 0, units = metal

1794 atoms
3 atom types

-13.82255881409459 13.82255881409459 xlo xhi
-13.58924757098737 13.58924757098737 ylo yhi
-13.987776689902507 13.987776689902507 zlo zhi

Masses

1 55.847
2 1.008
3 1.008

Atoms # atomic

666 1 -11.41441377944626 -12.022590629266938 -12.836130150610181 0 1 0
12 1 -12.709085126644393 -11.568713769758132 -10.850685225522023 0 0 0
143 1 -9.013103324961225 -11.766282584412874 -12.100529900280623 0 0 0
120 1 -6.603629335263805 -11.478324307703442 -11.516732465566388 0 0 0
698 1 -5.199002706375573 -11.772793722912247 -13.56448742781538 0 1 1
605 1 -4.450120148292893 -13.389605872994283 -11.617092013172297 0 1 0
125 1 -4.2550191800481265 -11.001617545326361 -10.746712187919911 0 0 0
124 1 -2.7526577502031273 -11.523055536946522 -12.764641000993649 0 0 0
117 1 -0.421339263564942 -11.025122461614261 -12.14658457172667 0 0 0
118 1 -2.10142939136089 -12.937643433946993 -10.977115699464205 0 0 0
568 1 -0.8061028194633657 -13.329491754149702 -13.08959206341583 0 1 0
10 1 -13.566661070802827 -10.0542820709813 -12.638786199020196 0 0 0
185 1 -11.017719073915062 -9.681608552504791 -12.131408917215484 0 0 0
67 1 -13.237223666682137 -7.722472655215015 -11.99595033389588 0 0 0
9 1 -10.77527128724028 -7.3572928838651395 -11.185468649139011 0 0 0
116 1 -13.7433602801514 -0.52649152218493 -1.0787508759253424 0 0 0
142 1 -7.182047972474514 -9.780255783132773 -13.21803077948975 0 0 0
291 1 -9.396505139056416 -7.880623335803592 -13.117806020701009 0 0 1
184 1 -8.805378415475637 -9.421675190851953 -11.307927750782687 0 0 0
183 1 -6.960190608664025 -7.3424491270201395 -12.493158126470508 0 0 0
148 1 -4.83981341436723 -9.477856980398634 -12.57829262852243 0 0 0
191 1 -4.653778574129234 -7.14310674461033 -11.804187634404368 0 0 0
193 1 -6.355857175225507 -8.96128391371654 -10.85651063843938 0 0 0
123 1 -2.6110047574990105 -9.212174281814118 -11.899027202337109 0 0 0
121 1 -0.9168909342388591 -7.297689636547173 -13.215744718896584 0 0 0
957 1 -0.21989843299336798 -8.666913613168816 -11.355289809304486 0 0 0
154 1 -2.2818356999702 -6.859600953371343 -11.165412043262448 0 0 0
457 1 -7.415204472877287 -0.05004059076432732 -8.045124446263019 0 0 0
51 1 -5.553068065427061 -2.1698127768507636 -2.027300885034583 0 0 0
65 1 -11.463412108135875 -5.983723597249266 -13.013699506532053 0 0 0
64 1 -11.091896676635006 -3.6986898303106805 -12.088328431815734 0 0 0
101 1 -13.432231471683194 -3.9827737603388353 -12.901584082810858 0 0 0
66 1 -12.762745072144211 -5.502699686351292 -10.898507775336835 0 0 0
49 1 -3.755063490214301 -0.33543153028607264 -2.9284953772060156 0 0 0
7 1 -9.00253655770716 -5.495858819761768 -12.448111673373552 0 0 0
13 1 -7.313753540585074 -3.663022738575176 -13.439913220458154 0 0 0
15 1 -6.701980431873632 -5.13382642573265 -11.61184893592716 0 0 0
269 1 -5.260028070087079 -5.610532374077564 -13.638008872358002 0 0 1
190 1 -4.289160696289262 -4.75352989651398 -11.05733993920237 0 0 0
145 1 -2.9820894885958573 -5.1259662572437446 -13.066068769205055 0 0 0
152 1 -0.6137339903989805 -4.9680170088201265 -12.494180531079286 0 0 0
102 1 -13.067688535364509 -1.6600441802673096 -12.061194681242496 0 0 0
6 1 -10.651306311586325 -1.329257261776423 -11.351611740605616 0 0 0
939 1 -0.15797579777520987 -8.968430887326345 -4.967434298510373 0 0 0
161 1 -8.1965240423353 -13.517756907461896 -4.0118345709837655 0 0 0
69 1 -8.796705047095447 -3.0896803034534237 -11.458867259025949 0 0 0
63 1 -9.25989706459657 -1.5602407066341328 -13.255667899852039 0 0 0
455 1 -8.398200330863736 -0.8093916053863524 -10.760401627310927 0 0 0
68 1 -6.754515089877804 -1.3111430501871535 -12.70931234766605 0 0 0
4 1 -4.974821145682382 -3.4197639350873175 -12.854371800535525 0 0 0
527 1 -4.472305796120944 -1.0202695189513857 -12.02975883994069 0 0 0
14 1 -6.429779727744387 -2.7822796798004727 -10.891678591710612 0 0 0
199 1 -2.595108649525061 -2.9416260791404003 -12.218162406687288 0 0 0
3 1 -0.8154843066614141 -1.1148046702486418 -13.388639108402794 0 0 0
531 1 -2.2292459634450275 -0.48569218570439965 -11.344010796355668 0 0 0
1072 1 -0.1382887683071452 -2.5379200658595114 -11.549605717612138 0 0 0
187 1 -12.06898285494956 -13.184967106937444 -9.048594856527146 0 0 0
21 1 -11.842215967827642 -10.768396616416972 -8.368496835398446 0 0 0
23 1 -13.49996662015016 -12.710020447644624 -7.118341446277014 0 0 0
186 1 -10.424467838492415 -11.14850095316492 -10.33210082014298 0 0 0
150 1 -8.298247391328665 -13.266566936281222 -10.483527610730167 0 0 0
195 1 -8.020044639002307 -10.87040703271945 -9.633751327133151 0 0 0
197 1 -9.775722571919552 -12.739264546047496 -8.498508484317824 0 0 0
151 1 -7.368014190085764 -12.381957660686863 -7.83427962216551 0 0 0
196 1 -9.52291983055073 -10.476600724687117 -7.664501831852062 0 0 0
126 1 -5.931770120819181 -12.794559909292603 -9.761645901069052 0 0 0
149 1 -5.6334232877400225 -10.457522941261722 -8.875980051107687 0 0 0
130 1 -3.5442689573327204 -12.516395632143325 -9.086127548773245 0 0 0
158 1 -4.97605323189838 -11.971793376373203 -7.117989831630077 0 0 0
128 1 -1.9355675981196185 -10.687959602537706 -10.155689627906122 0 0 0
119 1 -1.1732752606041057 -12.061040922797115 -8.43628416790207 0 0 0
11 1 -12.50411511938761 -9.233621441429747 -10.204103676250355 0 0 0
73 1 -12.203373286854305 -6.969506278774876 -9.246211017282754 0 0 0
20 1 -11.627807378030775 -8.540009842778307 -7.506603129949319 0 0 0
17 1 -8.22337219146928 -7.066300257120028 -10.500802184668888 0 0 0
19 1 -10.111420641131547 -8.96411063433623 -9.351281202350421 0 0 0
194 1 -7.697810227845179 -8.56968765226762 -8.75016908107277 0 0 0
147 1 -4.000507323805962 -8.647800788296106 -9.988284744700545 0 0 0
203 1 -5.3556746858509445 -8.098741049600664 -8.024987251151405 0 0 0
156 1 -3.328851904453334 -10.143399445008889 -8.17260999544893 0 0 0
127 1 -1.4720246720833625 -8.241438875455579 -9.335681209509719 0 0 0
155 1 -2.9359763513909947 -7.758646705812085 -7.358712814235843 0 0 0
133 1 -0.9727119054186648 -9.720030306102117 -7.496056229475911 0 0 0
72 1 -11.86072040133665 -4.687699052835075 -8.380402615953917 0 0 0
71 1 -10.384352747084291 -5.11874361250096 -10.434678486572938 0 0 0
8 1 -11.933295498784824 -8.338137706082879 -13.900603705185775 0 0 0
18 1 -9.79663221509993 -6.589679694833177 -8.604795427919694 0 0 0
16 1 -8.076648901184285 -4.717183831127706 -9.779204267067815 0 0 0
28 1 -7.611077789833053 -6.259821105898771 -7.789692532291125 0 0 0
77 1 -9.697469196172353 -4.240992573076149 -7.597248376788727 0 0 0
192 1 -6.001655613987722 -6.645684340881388 -9.755954114720168 0 0 0
26 1 -5.710686234774341 -4.206358986065153 -9.064611161544722 0 0 0
201 1 -3.6449551535958857 -6.2270761775151335 -9.156226325390307 0 0 0
202 1 -5.1661599780870535 -5.785212377377706 -7.250724950282917 0 0 0
200 1 -3.3874134813038115 -4.0223761813714365 -8.406428081405199 0 0 0
153 1 -2.0369731857764766 -4.336572504889766 -10.37752095118706 0 0 0
163 1 -1.3630057225960162 -5.8329994537526595 -8.503688054199545 0 0 0
211 1 -1.092542413385397 -3.5065905785121902 -7.782905672280801 0 0 0
74 1 -13.6467454824826 -6.487487199805702 -7.1939746342952 0 0 0
104 1 -12.471094200368746 -3.158794765275003 -10.231786793535306 0 0 0
103 1 -12.217878865426501 -0.8475385657146539 -9.54254838962563 0 0 0
105 1 -11.664890293567682 -2.1864493666519476 -7.62006379686036 0 0 0
70 1 -10.108387770774529 -2.745076838861383 -9.570774317533491 0 0 0
75 1 -7.7924048361343905 -2.2289188529307715 -8.877225213446199 0 0 0
469 1 -9.731476772676888 -0.34954081481475185 -8.787190394757289 0 0 0
284 1 -13.8065134618838 -6.235123519680658 -13.770689842961787 0 0 1
24 1 -4.031754465672469 -2.454286816484318 -10.214938885371375 0 0 0
456 1 -5.9745485701394205 -0.515721068794079 -9.998283191614345 0 0 0
25 1 -5.452818200118649 -2.0602525261205837 -8.223111130341717 0 0 0
532 1 -3.641373602008265 -0.10084953458277646 -9.348627506088452 0 0 0
2 1 -1.5517038861882035 -2.051529161356438 -9.538340392645729 0 0 0
35 1 -3.19976186675734 -1.561014556788562 -7.550333775858009 0 0 0
198 1 -11.16884466862326 -12.361608707997329 -6.446317452006769 0 0 0
22 1 -13.209654965643656 -10.32300207252904 -6.260947471538268 0 0 0
34 1 -12.707592144120342 -11.886358546153312 -4.5940310158633935 0 0 0
208 1 -10.392469250638502 -11.518981422223975 -3.9020201515025477 0 0 0
207 1 -8.68445318340245 -11.96053112099805 -5.765832571930694 0 0 0
144 1 -10.736302000784402 -13.550002927412491 -11.002473712656778 0 0 0
159 1 -6.448732328649949 -11.561409186428289 -5.173077467926371 0 0 0
167 1 -4.15011508463809 -11.201988761399097 -4.437311093587235 0 0 0
113 1 -11.481574086334879 -0.16912165332732698 -0.37532229966570263 0 0 0
129 1 -2.7814245483977906 -11.72889844510492 -6.3907661988022415 0 0 0
1063 1 -0.40787494081940245 -11.393091933664813 -5.743726905670668 0 0 0
134 1 -1.7579127416744473 -10.90608534924823 -3.6735691913927795 0 0 0
135 1 -2.0150180410000953 -13.187332714555835 -4.596392900725515 0 0 0
32 1 -10.850051775551663 -9.922170894694288 -5.63708780221617 0 0 0
81 1 -13.06859445627471 -8.145654005442754 -5.442107037318095 0 0 0
31 1 -10.738804315668805 -7.713880097167363 -4.787042952234668 0 0 0
33 1 -12.38884147813234 -9.604954285652095 -3.6032282419578454 0 0 0
205 1 -7.0913123901378645 -10.147704884112041 -7.02903789665244 0 0 0
30 1 -9.23862332697515 -8.001720312539756 -6.589917181460262 0 0 0
206 1 -8.57479813008369 -9.646903493039034 -4.850065507413326 0 0 0
41 1 -8.311778606972833 -7.295332137462593 -4.19398490798226 0 0 0
204 1 -6.8409673268064495 -7.720923753548472 -6.076170734375754 0 0 0
157 1 -4.71591086888132 -9.668107964128692 -6.20517334584499 0 0 0
215 1 -4.503656051265482 -7.392865989300504 -5.40504135101054 0 0 0
217 1 -6.238748905451676 -9.237479125175742 -4.300641652742511 0 0 0
166 1 -3.7552729185164377 -8.929421112075966 -3.5833449867145806 0 0 0
1392 1 -13.568528267453019 -12.462369106681782 -13.556129746149312 1 1 0
132 1 -0.7356027059711447 -7.2967689278438 -6.80869918641337 0 0 0
165 1 -2.462026152024354 -9.405925651694789 -5.611649700199811 0 0 0
164 1 -2.340656666404458 -7.198501017118758 -4.761523862503324 0 0 0
107 1 -13.37499716586451 -4.181878067776797 -6.308749315084287 0 0 0
79 1 -11.222100896334245 -6.1935428704721955 -6.550283135747286 0 0 0
78 1 -11.10739369707631 -3.8013766785204712 -5.8154183300248246 0 0 0
80 1 -12.825105337079712 -5.74862649542136 -4.5537562750186265 0 0 0
86 1 -10.491178323208489 -5.3237597413617515 -3.9784108841103336 0 0 0
27 1 -7.193306119038116 -3.9363182458218464 -7.118703896275142 0 0 0
29 1 -9.054527832588631 -5.708696253509821 -5.919458781612544 0 0 0
84 1 -8.698595649068125 -3.4351626427612167 -5.159128452521518 0 0 0
39 1 -6.664801182794783 -5.414343399239241 -5.226036912173299 0 0 0
214 1 -4.361405950326125 -5.054404682684936 -4.420463347606352 0 0 0
37 1 -4.854477312872021 -3.491327088347722 -6.378343618025891 0 0 0
213 1 -2.9203049392522065 -5.553135433058889 -6.421901959467017 0 0 0
162 1 -0.44992901671984775 -5.1067589240621984 -5.989789791425463 0 0 0
225 1 -1.9587615168898527 -4.7678276191212685 -4.112323377565778 0 0 0
110 1 -12.577619109431856 -3.4996080343549014 -3.8102226898829112 0 0 0
106 1 -13.078729853988085 -1.7620419153821878 -5.61482459076289 0 0 0
108 1 -10.735075101966313 -1.438098816862965 -4.9126680567166545 0 0 0
76 1 -9.236048001999777 -1.8535351528381856 -6.905174675091117 0 0 0
83 1 -8.316848839312573 -1.1588251218424208 -4.3611360308015445 0 0 0
82 1 -6.8249532583589 -1.5132528505615213 -6.334910170529937 0 0 0
36 1 -4.471488286333953 -1.1001642767884832 -5.57008748585074 0 0 0
38 1 -6.307660034857622 -3.0945858251522047 -4.500987935738635 0 0 0
50 1 -3.8654485806338528 -2.628861715538335 -3.774523301942912 0 0 0
91 1 -6.023459709578366 -0.6907730794415077 -3.7204310377906484 0 0 0
223 1 -0.2555188142627305 -2.7369671363299624 -5.156409225953604 0 0 0
1 1 -0.774564216414328 -1.1517325169857386 -6.9566892547552905 0 0 0
212 1 -2.5055343918415325 -3.2182006572661095 -5.73951207537076 0 0 0
48 1 -2.2024832972905717 -0.7459654469380048 -4.9792968869680685 0 0 0
47 1 -13.381040601680235 -12.853236150352872 -0.7800067109766289 0 0 0
45 1 -11.731107279946865 -11.109909228398038 -1.7819932041206563 0 0 0
210 1 -11.961291728411528 -13.337806734305273 -2.7936959073269687 0 0 0
489 1 -13.734400404428786 -0.3178096749366528 -7.512350118906669 0 0 0
219 1 -7.8908180966540495 -11.18485306072427 -3.120610025654468 0 0 0
220 1 -9.381584693607696 -10.857466072370693 -1.066564066057996 0 0 0
221 1 -9.474560282287664 -13.011027710824925 -2.0320248949800206 0 0 0
170 1 -7.203766134396137 -12.65666398910504 -1.2748874443711369 0 0 0
231 1 -7.040020320042966 -10.42233622793923 -0.39335758073427307 0 0 0
169 1 -5.828792353517066 -13.093818638292618 -3.3376589023218735 0 0 0
176 1 -4.8159838021883985 -12.22052617970721 -0.5601499106118446 0 0 0
168 1 -5.6056103310209 -10.768173604303072 -2.4397900871982916 0 0 0
136 1 -3.507004898451399 -12.76564745432576 -2.6132001331263 0 0 0
174 1 -3.204060380231372 -10.44276332183088 -1.7649766105570688 0 0 0
139 1 -1.1333056756459303 -12.452236393003593 -1.778036704101293 0 0 0
61 1 -2.9930129130879255 -1.8204083212717332 -1.1938135877432288 0 0 0
224 1 -1.5925429284155044 -2.288896866470372 -3.08862856487044 0 0 0
88 1 -12.05970345017446 -7.194740474403001 -2.7665630381513253 0 0 0
44 1 -11.363241293940142 -8.765193015278989 -0.9628149172658773 0 0 0
115 1 -13.590924940583493 -6.742916586060065 -0.7460606384578305 0 0 0
43 1 -10.080177890893438 -9.300807022048247 -2.9178283522850563 0 0 0
218 1 -7.670502577336471 -8.846036184782118 -2.2467514654779617 0 0 0
57 1 -8.986455011467893 -8.398807370829276 -0.34124292914468946 0 0 0
42 1 -9.75536580803442 -6.8582378338289125 -2.1531783145061905 0 0 0
229 1 -5.2325510845189775 -8.452030570771548 -1.7532748452065086 0 0 0
137 1 -0.8178864674206103 -10.136161144770476 -1.0075727480733878 0 0 0
172 1 -1.440436192126901 -8.539556602001726 -2.8687451837386906 0 0 0
179 1 -0.5350116734612183 -7.609495794971894 -0.39075142688793996 0 0 0
173 1 -2.8484696817256836 -8.139996668166386 -1.009787695232303 0 0 0
87 1 -11.976043978251301 -4.804261603254673 -1.8552814419450634 0 0 0
96 1 -11.284358145751204 -6.56087010983027 -0.14098489796187508 0 0 0
40 1 -8.097885241857073 -4.863518579190794 -3.337022699716341 0 0 0
55 1 -7.25207043493937 -6.368103815994882 -1.5336201404380319 0 0 0
95 1 -9.62079971989871 -4.5246156025000435 -1.3677728994479263 0 0 0
54 1 -7.366893835136546 -4.161019380189423 -0.6851466139877207 0 0 0
233 1 -0.7377565940044146 -1.3046858148503908 -0.5302880016265519 0 0 0
216 1 -5.965753910775414 -6.813787100700196 -3.4637436959779215 0 0 0
227 1 -3.5390673195257207 -6.604420775880314 -2.851897075759906 0 0 0
52 1 -5.741315041562684 -4.47196744810115 -2.513236741577492 0 0 0
228 1 -4.957063207337454 -6.058561560904283 -0.8722415229917306 0 0 0
226 1 -3.295177443792383 -4.143718649863523 -2.0016780648638175 0 0 0
236 1 -2.7000994473923647 -5.782858948289936 -0.22867323378535254 0 0 0
234 1 -0.9087291726492879 -3.8207259972152876 -1.3827309428926693 0 0 0
171 1 -1.2752861645512308 -6.283212280048861 -2.297414093775904 0 0 0
1019 1 -13.662601177341646 -0.10451170808633137 -13.6891354900888 1 0 0
114 1 -11.685798837605383 -2.4776855919995455 -1.2439361595346679 0 0 0
109 1 -12.28916902426135 -1.1031604003471873 -3.017197487108767 0 0 0
146 1 -3.242010303175162 -7.830762618682032 -13.744652752836574 0 0 0
92 1 -7.6635397875189435 -0.18469142051811183 -1.7123809884430639 0 0 0
112 1 -10.029538494467811 -0.6146999585172477 -2.3508595966349652 0 0 0
94 1 -9.334958985161052 -2.106102776893268 -0.6274765473481008 0 0 0
85 1 -10.224167697371325 -2.9727227139551733 -3.1938409479243948 0 0 0
93 1 -7.891532254396362 -2.5621830845565103 -2.532311383132731 0 0 0
62 1 -4.864340514532843 -3.733842655948294 -0.21820312995071411 0 0 0
285 1 -1.2972066246280907 -9.553893895114292 -13.905433012127439 0 0 1
131 1 -4.463099876441085 -13.493357765825344 -5.27881625352518 0 0 0
99 1 -11.624498218168828 -2.036892768747533 -13.920237844453238 0 0 0
98 1 -6.993467249243214 -1.790908464735459 -0.03372202544432845 0 0 0
470 1 -11.193489977035066 -0.006721494365473646 -6.727323438048739 0 0 0
273 1 -9.707635382090047 -3.9811143754872393 -13.986014843279193 0 0 1
451 1 -12.392052917643525 -11.925840349344037 2.0407752746116863 0 0 0
452 1 -13.104721646018236 -10.631168147953986 0.08924449958891145 0 0 0
232 1 -8.54920503837871 -12.193772509591984 0.7390636279439455 0 0 0
413 1 -10.0190578238418 -11.821153855474284 2.658510562305075 0 0 0
411 1 -7.5794395898947196 -11.498036900100315 3.4420768368162165 0 0 0
450 1 -6.164348813988987 -11.889458701132716 1.4229112144724212 0 0 0
409 1 -3.9068814644230034 -11.378971430321696 2.0313622956619746 0 0 0
418 1 -5.407275913718754 -13.459900907263778 3.183114255467107 0 0 0
1321 1 -1.549390332490752 -11.179367553547667 2.7738158035263503 0 0 0
448 1 -1.6651025211610282 -13.52654851857941 1.8519349986374802 0 0 0
924 1 -0.14270938465542926 -11.606927553249239 0.8074238355825312 0 0 0
58 1 -10.791614409992071 -10.296681563736794 0.7984692217343845 0 0 0
89 1 -12.779462848673052 -8.347605019368363 0.995510551634947 0 0 0
441 1 -10.462072733534578 -7.914132480219993 1.64660304900357 0 0 0
415 1 -12.097174863894706 -9.603951538317792 2.7995055451077775 0 0 0
445 1 -8.366578183882366 -9.871671197210143 1.574354259599021 0 0 0
404 1 -8.20187011225109 -7.461823502040083 2.3043181786339666 0 0 0
446 1 -9.754844604774132 -9.424249706531139 3.530467523066566 0 0 0
175 1 -4.616595996269451 -9.951157841134311 0.15495345359076218 0 0 0
444 1 -5.940144766826823 -9.538518334251485 2.1283215256177606 0 0 0
230 1 -6.710022115054689 -8.007546789888664 0.24137977909178332 0 0 0
237 1 -4.415201389774721 -7.669666901250396 0.8136800520262408 0 0 0
400 1 -3.5860302688351577 -9.038623500783668 2.810204140091919 0 0 0
402 1 -5.8189203091893305 -7.191534306557075 2.9220010983132596 0 0 0
180 1 -2.1581357243785604 -9.621739754608182 0.9226858323620579 0 0 0
437 1 -1.929476515126602 -7.2888771571180415 1.4799528766577446 0 0 0
408 1 -1.1840956688812074 -8.820375036330335 3.497043591598512 0 0 0
261 1 -5.5199260098922185 -1.8445369222726349 13.221158458641433 0 0 0
435 1 -10.997180486168482 -4.0747483907282 0.5816171485972514 0 0 0
442 1 -12.659190406332424 -5.937411728215342 1.7305988342139642 0 0 0
436 1 -12.307304365014334 -3.546198302760221 2.4879960310822113 0 0 0
440 1 -10.207291073965807 -5.4950766310653485 2.4423049203222114 0 0 0
56 1 -8.88129620304796 -6.032050215125404 0.4276815287047544 0 0 0
433 1 -8.715761436538106 -3.662661499504903 1.183394120322065 0 0 0
395 1 -7.89280079650619 -5.176823006920269 3.1921462722270313 0 0 0
439 1 -6.593242941135394 -5.682321998325915 1.1324854452475286 0 0 0
438 1 -4.26528520492457 -5.395305969153306 1.7250828034094798 0 0 0
178 1 -0.3267641124891405 -5.239706994238798 0.34581188864602197 0 0 0
235 1 -1.890138390214931 -4.91810296806165 2.407653214123691 0 0 0
428 1 -13.023872391713473 -1.9663594787754395 0.743747706454986 0 0 0
426 1 -10.74438373332755 -1.7109291032277092 1.425804981405662 0 0 0
388 1 -12.33206620332903 -1.2436876497833715 3.373982636028604 0 0 0
425 1 -8.36452382604969 -1.4011776004293441 2.0315337939876805 0 0 0
434 1 -10.096560668244429 -3.3323552937438468 3.1951969493743455 0 0 0
432 1 -6.425246708246652 -3.3673011637442247 1.8774565971158896 0 0 0
431 1 -4.021908795564128 -2.9331586678338706 2.5195424241427204 0 0 0
424 1 -4.686694949956836 -1.539886927325691 0.7941454509710759 0 0 0
423 1 -6.0548514944471075 -0.8956707752669306 2.702622118785424 0 0 0
250 1 -3.8087296209987596 -0.5485456922504834 3.117035735611541 0 0 0
300 1 -0.06402526558921195 -2.4332569817544467 10.029480872302742 0 0 0
422 1 -2.4356227008600833 -3.387614730797079 0.6267285606248194 0 0 0
1579 1 -2.3015427548255882 -1.0831321325914374 1.3548256522379951 0 0 0
341 1 -1.6073498585520323 -2.5296827321930557 3.2280861158899476 0 0 0
430 1 -0.11385971186053112 -2.8477219680063754 1.1340022247686168 0 0 0
421 1 -13.73489559260677 -11.641708127595004 4.020349723756961 0 0 0
414 1 -11.263366164358448 -11.178238580798729 4.703034698117815 0 0 0
374 1 -12.859353871651402 -13.093769166657706 5.991983045229663 0 0 0
375 1 -12.520838790786645 -10.781513674294235 6.761838808660823 0 0 0
379 1 -10.32774238735756 -12.570003893194505 6.634073177718012 0 0 0
389 1 -11.412653105369781 -0.34392457401761867 5.985380746854165 0 0 0
419 1 -9.12243362207529 -13.211266783050053 4.471504499638424 0 0 0
372 1 -8.896304143174463 -10.778464136528257 5.219319578741683 0 0 0
370 1 -6.600806399542868 -12.847236331026187 5.284742256608112 0 0 0
410 1 -5.284162469420579 -10.937524757608077 4.152023551993185 0 0 0
377 1 -4.460542592336989 -12.53995026199976 5.879749957302135 0 0 0
361 1 -6.527215931266204 -10.355728142068081 6.159924657036715 0 0 0
1326 1 -0.7722812861342039 -12.614130588386764 4.621609190330648 0 0 0
417 1 -3.114689098617651 -13.034090586370919 3.9122944337375607 0 0 0
1276 1 -2.8999639121594125 -10.522584017239016 4.644889367172645 0 0 0
376 1 -2.174715495100571 -11.968227419824899 6.554393328361936 0 0 0
406 1 -11.855346865321652 -7.355573379581548 3.5191557104678814 0 0 0
416 1 -13.386247186265226 -9.30195912604069 4.789223692072511 0 0 0
365 1 -11.14739041047827 -8.95362115037317 5.468858813130087 0 0 0
405 1 -9.442429947149035 -7.068881121311216 4.307582775271495 0 0 0
412 1 -7.353961493981236 -8.973366119683007 4.01603631960721 0 0 0
363 1 -8.69101893320531 -8.55042493965497 6.105308871654618 0 0 0
368 1 -4.991495302986429 -8.523538283663301 4.831263403854358 0 0 0
369 1 -4.106341832105311 -10.051214524643575 6.697348881673339 0 0 0
362 1 -6.169496608336696 -7.985253241463736 6.79824868777586 0 0 0
1266 1 -0.578416230392536 -10.212058393916164 5.513180038738518 0 0 0
359 1 -2.572957027599143 -8.369691137567893 5.592810759510062 0 0 0
358 1 -0.33840691903985665 -7.8508515324746755 6.152659275700355 0 0 0
407 1 -13.32101639970588 -6.939654210812845 5.70306982354024 0 0 0
397 1 -11.84028084676764 -5.118025467652476 4.396172729468255 0 0 0
1247 1 -12.993088083414944 -4.578995626133089 6.598050509319368 1 0 0
356 1 -10.902024355537417 -6.4295806764494055 6.227641977109023 0 0 0
403 1 -7.191294681745975 -6.728277330580806 4.956802115397963 0 0 0
396 1 -9.402695920656178 -4.6101041584327636 5.069298778208189 0 0 0
394 1 -7.196939716204486 -4.278636926407994 5.848680559824359 0 0 0
391 1 -3.389557584499274 -6.770572174352645 3.500738677327039 0 0 0
393 1 -5.644217740196458 -4.839498363319196 3.8633116001264973 0 0 0
401 1 -4.934274116977917 -6.30721955583715 5.586655159294896 0 0 0
343 1 -4.822772418171175 -4.04419659020736 6.300651593755376 0 0 0
392 1 -3.3785764837828562 -4.477476449546135 4.305637502773557 0 0 0
390 1 -1.0933681237715227 -4.067440051974291 4.963889583356899 0 0 0
399 1 -1.01066840053908 -6.453285256028266 4.257367569662833 0 0 0
352 1 -2.6028680878524035 -5.987077131242113 6.10458718818926 0 0 0
350 1 -0.4708500709371002 -5.457061581845565 6.858754138112452 0 0 0
351 1 -2.6966807816201985 -3.4703262621718807 6.9250654130588 0 0 0
398 1 -11.648357736452722 -2.7516412519938864 5.093827464643571 0 0 0
1186 1 -0.1175641229922757 -12.39758119553931 11.109278108896284 0 0 0
252 1 -9.96144934929769 -0.9535217399742191 3.908377120969007 0 0 0
385 1 -7.73143944199506 -0.329915634395082 4.617958621724142 0 0 0
386 1 -7.74307106504946 -2.9303234465236745 3.868445279042259 0 0 0
387 1 -9.168497311487744 -2.3707359170608235 5.922066130251931 0 0 0
345 1 -6.831468855768997 -1.9171674074517764 6.44047324744194 0 0 0
384 1 -5.445849259858701 -2.4068491103574914 4.416523185459173 0 0 0
420 1 -11.641554951494065 -13.38110667890883 3.799231804432182 0 0 0
344 1 -4.598122597637646 -1.6254546608815055 6.964818165181224 0 0 0
383 1 -3.1615407446156567 -2.0032909655464444 5.070088437547522 0 0 0
1246 1 -0.8700989046471008 -1.8020520584365851 5.853985969631687 0 0 0
381 1 -1.5634282349564206 -0.17166814241313944 4.023526197976157 0 0 0
333 1 -11.728614555181638 -12.031483124017816 8.593342207011805 0 0 0
371 1 -8.091934297813795 -11.984320964076717 7.157907452662652 0 0 0
331 1 -9.350004758975611 -11.479193177919065 9.216784332087904 0 0 0
330 1 -7.000168401416563 -11.257116221434263 9.863723043329077 0 0 0
373 1 -10.154664814553058 -10.213163590962417 7.402824315906383 0 0 0
247 1 -5.307183414757381 -0.08719044260419828 5.187708533307582 0 0 0
329 1 -5.661524414795187 -11.715841695658586 7.86857464263586 0 0 0
336 1 -4.857967019403867 -13.19712918043542 9.879441606428838 0 0 0
327 1 -3.3796564575671937 -11.410392621962828 8.49616540631337 0 0 0
326 1 -0.9890580347858133 -11.11565084080578 9.220076909556223 0 0 0
335 1 -1.1240336253758603 -13.397561179954504 8.398611939622338 0 0 0
751 1 -2.5097287115266464 -12.653752731246596 10.497738044078353 0 1 0
366 1 -12.356398760491086 -8.400305262664808 7.4650526065506995 0 0 0
324 1 -11.560496006367112 -9.633987550481006 9.38724203946201 0 0 0
323 1 -11.199465564719778 -7.335616167609924 10.132610713429948 0 0 0
1212 1 -13.64473539059872 -7.719558990187867 9.457748387995533 1 0 0
111 1 -13.382446170010102 -4.411447253202816 0.08712389051870417 0 0 0
322 1 -7.830185589869278 -9.490006413365776 8.120438533736483 0 0 0
364 1 -9.896297242538711 -7.646286998103007 8.125356444806808 0 0 0
332 1 -9.187848853859656 -9.088647927974385 9.977273748506079 0 0 0
321 1 -7.519403838030586 -7.230074288311246 9.029086150428821 0 0 0
360 1 -3.924999730792768 -7.580057833577912 7.545825603394036 0 0 0
320 1 -5.418734376269818 -9.361051760541352 8.68788728642415 0 0 0
319 1 -5.085154049267359 -7.017891306958608 9.541319438986097 0 0 0
367 1 -1.783685738556521 -9.777038419693785 7.459872366851005 0 0 0
317 1 -1.5035136152359811 -7.187838095182099 8.237934732129172 0 0 0
318 1 -3.100551065565499 -9.081337264605741 9.32479645910302 0 0 0
1220 1 -0.6071041219014575 -8.643561876845737 10.16389280041859 0 0 0
315 1 -12.041766101301569 -5.961135911657874 8.31005020022662 0 0 0
325 1 -13.247884696984297 -5.2225961200407305 10.436647489092646 0 0 0
306 1 -11.845924531371141 -3.6223790596703633 9.226903887691492 0 0 0
354 1 -8.371882556361392 -6.17290619256059 6.909260084030894 0 0 0
347 1 -10.25047418307217 -4.120594304827646 7.205290379202683 0 0 0
355 1 -7.833788023614416 -3.427915942413982 8.11955629897012 0 0 0
313 1 -9.510116493195264 -5.407082233244232 9.18816046674203 0 0 0
312 1 -7.1510279413225435 -4.942174989117829 9.92931017110584 0 0 0
353 1 -6.0035411514445665 -5.573199352318987 7.618818109830453 0 0 0
311 1 -3.363377161648529 -5.18302134456599 8.435960645258817 0 0 0
309 1 -0.7428164043328138 -4.8394810093907825 9.124063858162202 0 0 0
268 1 -2.8222490831367146 -6.896629692137068 10.303898216127653 0 0 0
348 1 -13.278857133248739 -2.2141260661779665 7.19134977714042 0 0 0
346 1 -10.979370348869491 -1.8784690000526432 7.763386275125239 0 0 0
1192 1 -12.979258735588811 -1.4784771138738417 9.495876117684897 1 0 0
305 1 -10.657202994884443 -1.106130788861261 10.381653512098008 0 0 0
243 1 -8.816583322761844 -1.360246537495664 8.374590567173982 0 0 0
314 1 -9.404749057219078 -3.007988924435965 9.978498757996412 0 0 0
304 1 -5.153150029289179 -3.191588280423808 8.59015589251474 0 0 0
242 1 -6.509589601001725 -1.0896226702144087 8.785366658831787 0 0 0
794 1 -4.388464996052912 -0.8284722232172399 9.48990096739385 0 0 0
340 1 -0.15828680424816532 -0.7741652356696793 8.306582389634013 0 0 0
349 1 -0.44292869750085906 -3.1479765290229995 7.60967582390581 0 0 0
342 1 -2.321681282783663 -1.0011411845064533 7.552173683263057 0 0 0
302 1 -2.6729396404882717 -2.6053830881050626 9.199103760222759 0 0 0
1131 1 -2.0219348801571613 -0.4194245494373483 10.20694359019063 0 0 0
1166 1 -0.26401021052066653 -6.238916774363154 10.919012697043154 0 0 0
338 1 -11.0340982146305 -13.37810462656817 10.569958785574617 0 0 0
292 1 -13.085300767958552 -11.453546329549145 10.572872084496478 0 0 0
290 1 -10.63179185875935 -11.08449361928695 11.241450490273351 0 0 0
298 1 -12.355250240297707 -13.010830270157692 12.371417026369873 0 0 0
293 1 -12.124570870738925 -10.649077703851056 13.14385250608914 0 0 0
755 1 -8.616673595229063 -13.003975582230776 11.246451803676255 0 1 0
297 1 -7.564857848775075 -12.285407024517122 13.861207669516599 0 0 0
684 1 -9.972427443417743 -12.614425786421826 13.221686449652626 0 1 -1
296 1 -8.305000664295513 -10.621151878207977 11.875832200997742 0 0 0
301 1 -4.110084208494808 -2.1796907732166186 11.274650872253392 0 0 0
328 1 -4.587243814527257 -10.730757550335397 10.651405114438731 0 0 0
288 1 -6.342299783568044 -12.658981382826918 11.835213997069193 0 0 0
295 1 -3.850229826168251 -12.337292672679201 12.564700782767993 0 0 0
141 1 -6.050778175559725 -10.305691847762501 12.615843292783389 0 0 -1
258 1 -1.7041425338270084 -2.086088889364044 11.950912796670849 0 0 0
286 1 -2.1975885607015915 -10.293792391185347 11.312440632188995 0 0 0
294 1 -1.484491253460007 -11.914506287740778 13.164292638099862 0 0 0
283 1 -12.666415063365076 -9.079303115933897 11.363842542927703 0 0 0
281 1 -10.362996554470511 -8.719809885245159 12.040858791263581 0 0 0
1167 1 -12.359463344598973 -6.887292059399895 12.195888501042145 1 0 0
289 1 -8.006120544708773 -8.4244520103783 12.928662533357546 0 0 0
272 1 -8.606620588983398 -6.823142531460427 10.95086941198797 0 0 0
279 1 -6.694975179777681 -8.825615049660007 10.67722198594377 0 0 0
280 1 -5.601640799433689 -8.07379971741149 13.582892257822984 0 0 0
277 1 -4.185322384489368 -8.473237035485027 11.489140773102775 0 0 0
287 1 -3.6406491656899895 -10.02353526426355 13.4106950850184 0 0 0
276 1 -1.8590626013983318 -8.074237894456964 12.131341687446028 0 0 0
274 1 -10.753364975571904 -4.906072722368149 11.13214041806474 0 0 0
275 1 -12.03515128836049 -4.480462177138172 13.047323398906485 0 0 0