LAMMPS data file via write_data, version 29 Sep 2021, timestep = 0

1865 atoms
3 atom types

-14.04335573812036 14.04335573812036 xlo xhi
-13.872192345793888 13.872192345793888 ylo yhi
-14.155883520937596 14.155883520937596 zlo zhi

Masses

1 55.847
2 1.008
3 1.008

Atoms # atomic

39 1 -13.54741624020261 -11.591710268591267 -12.344217026857127 0 0 0
84 1 -11.297298121343395 -12.257860596141747 -11.726937851039313 0 0 0
354 1 -10.996134653226191 -10.939894229548571 -13.539837177301965 0 0 1
141 1 -8.595905102214942 -11.340634276093576 -12.831824015020059 0 0 0
865 1 -9.957592573121053 -13.592424113048507 -13.501092356558942 0 1 1
187 1 -6.492188421240428 -11.990502634101531 -11.973841109855762 0 0 0
375 1 -6.174060828941464 -10.591432049921163 -13.912454741048874 0 0 1
178 1 -3.975058242808336 -11.304566559787938 -13.236921741471424 0 0 0
180 1 -5.199398780356427 -13.295825432648787 -13.814365547090343 0 0 0
24 1 -1.8669962936455526 -11.757060245876888 -12.365434756937654 0 0 0
1 1 -1.1907574616917032 -2.654107754906997 -0.6722167216576764 0 0 0
81 1 -12.162824098925977 -9.570628032687054 -11.908839718685854 0 0 0
90 1 -12.045397279540628 -8.194344464653078 -13.806168519784693 0 0 0
140 1 -9.76822235988307 -8.830768030559618 -12.823173263167524 0 0 0
132 1 -7.432465450654886 -9.331643978846468 -12.095705120052319 0 0 0
185 1 -6.316357625659034 -7.195310016581558 -11.532726557291904 0 0 0
232 1 -4.982653163725164 -8.562520668011963 -13.3061324575446 0 0 0
225 1 -2.718970919900526 -9.227078035751095 -12.512313298067012 0 0 0
176 1 -5.206662385941929 -9.987989499714622 -11.316566203134412 0 0 0
955 1 -0.5647618988878627 -9.634884580566963 -11.497303145355163 0 0 0
23 1 -0.3170112532610698 -8.225340602322078 -13.643850060985802 0 0 0
230 1 -1.5311757251684384 -7.0708406711650715 -11.877004928027535 0 0 0
38 1 -13.186452237721186 -6.933070363917588 -12.013290121097809 0 0 0
78 1 -12.07601761352037 -4.8622627123067605 -11.489722253725116 0 0 0
87 1 -11.827644693590907 -3.338086459713308 -13.464213660621663 0 0 0
89 1 -13.147883747008944 -5.464633082085291 -14.115745155202458 0 0 0
352 1 -10.878323817991811 -6.145930589902505 -13.089622179866481 0 0 1
137 1 -9.620782897186782 -3.9695197240967186 -12.638478852241006 0 0 0
139 1 -8.59309022219151 -6.6778120147437665 -12.330809853769146 0 0 0
184 1 -6.215538203150322 -5.918810586538317 -13.575617812918532 0 0 0
183 1 -7.415846434817247 -4.559516136190693 -11.644754658973378 0 0 0
223 1 -3.8517983901800275 -6.538182407244946 -12.515129633506707 0 0 0
182 1 -4.894451832830644 -3.8084441073237336 -12.743991229344791 0 0 0
229 1 -2.634822821183965 -4.415721995301764 -11.908154158646843 0 0 0
458 1 -1.3875346466160625 -5.607732714712441 -13.821787191157117 0 0 1
958 1 -0.16169201089322272 -3.5722892628486917 -13.16481137283843 0 0 0
40 1 -12.873665088397525 -0.8227630496479748 -13.66613000759172 0 0 0
36 1 -13.132241869567382 -2.1805321083154787 -11.668453144179292 0 0 0
86 1 -10.649380311960957 -1.3487702257973773 -12.766685755173274 0 0 0
126 1 -8.389031325079117 -2.024559467453436 -11.86446035239042 0 0 0
138 1 -7.131442967322264 -3.191703905586815 -13.640562403491453 0 0 0
181 1 -5.9359392989556525 -1.1742035598444271 -13.012952520315645 0 0 0
136 1 -8.188909893405683 -0.5020831070643403 -13.845075344868444 0 0 0
227 1 -3.6742115437973357 -1.6111456630868624 -12.270916311026394 0 0 0
228 1 -1.1959106024046289 -0.8692934120384006 -13.306885544635438 0 0 0
21 1 -1.5490509841855769 -2.358426025240284 -11.462055938825403 0 0 0
477 1 -11.553575361752644 -0.24840683345154702 -0.21856746567245366 0 0 0
74 1 -11.494606136191328 -13.725169732829771 -9.831604472502008 0 0 0
72 1 -12.613107390367391 -10.95902387798285 -9.824368114565791 0 0 0
83 1 -13.7045584684213 -13.141005821567358 -10.552044157358706 0 0 0
593 1 -8.987330218247592 -12.865960627422087 -10.799822013861892 0 1 0
122 1 -10.294712715985101 -11.731765802201949 -8.997004788232372 0 0 0
548 1 -6.8290951589628985 -13.423265784073978 -10.001615140901151 0 1 0
133 1 -7.744979957834319 -10.824661847878593 -10.109992046152557 0 0 0
179 1 -5.372131474806068 -11.334359272276664 -9.341460871169724 0 0 0
233 1 -4.340680749789559 -12.598579684044878 -11.242780765926632 0 0 0
226 1 -2.9606543105816368 -10.546069597658327 -10.49435191121677 0 0 0
217 1 -3.285660803462296 -11.978822008341442 -8.584354258001037 0 0 0
691 1 -2.0359299913536333 -13.075532729062722 -10.369162144482198 0 1 0
18 1 -0.7197705079856629 -11.132389027264695 -9.703901700800643 0 0 0
34 1 -13.36720409917099 -8.34330440463468 -10.021436306565533 0 0 0
131 1 -11.297692458378947 -8.938941950630891 -9.207011495556275 0 0 0
80 1 -11.084155171695098 -7.400785650471515 -11.125885334057768 0 0 0
82 1 -9.937367988201311 -10.258326453488174 -10.917735069825275 0 0 0
130 1 -8.832037511782783 -8.13198714661759 -10.259375763936923 0 0 0
121 1 -8.961025008390603 -9.624716581622398 -8.369655083916353 0 0 0
177 1 -6.578631905058716 -8.729925151443508 -9.579965470341673 0 0 0
169 1 -4.248437031032765 -9.185410122710813 -8.639327697159707 0 0 0
231 1 -4.111204149539391 -7.896750076366406 -10.68922187114705 0 0 0
224 1 -1.9118983188454095 -8.479854925260291 -9.699143593038976 0 0 0
79 1 -12.148807206163847 -6.162901534128495 -9.253686582942272 0 0 0
1417 1 -13.333176049008006 -3.6573600575000924 -9.594885167803755 1 0 0
129 1 -10.086744971497167 -6.816689033707492 -8.441521358390716 0 0 0
77 1 -11.09846242433465 -4.150032729824975 -8.734906513863056 0 0 0
115 1 -9.896620814340304 -5.336294923701988 -10.57838774306888 0 0 0
128 1 -7.673743982790619 -6.149812100661581 -9.725851370801937 0 0 0
173 1 -6.433597028852821 -4.001963240210086 -9.08144865488866 0 0 0
175 1 -5.385838982953651 -6.500214634781915 -8.846077102407886 0 0 0
174 1 -5.050723646616836 -5.277486078868623 -10.843509931162497 0 0 0
222 1 -2.8858663152007473 -5.862086995749845 -9.921807863880085 0 0 0
221 1 -0.4135567020671207 -4.861567702824276 -11.179521420600823 0 0 0
16 1 -0.6224544629641304 -6.483834313732643 -9.28534947290049 0 0 0
219 1 -1.656772723556088 -3.679018813847364 -9.297693222380985 0 0 0
644 1 -11.89390644287176 -0.21598437497859457 -11.148770350386059 0 0 0
1621 1 -12.150147375412429 -1.4808063036216392 -9.042165319334758 1 0 0
64 1 -8.608804983477192 -3.3431350991605733 -9.899436213007554 0 0 0
472 1 -10.910453932676617 -2.728858248717943 -10.750563873622344 0 0 0
135 1 -9.661183875476933 -0.8489794154517938 -10.266281858768764 0 0 0
172 1 -6.170835252842862 -2.668971884629798 -11.085995654393882 0 0 0
549 1 -7.486020089663718 -1.3530638832533857 -9.323241520172928 0 0 0
188 1 -1.0124170577625247 -1.0365846828014913 -2.426973623435556 0 0 0
220 1 -3.9441963599193812 -3.143157257621075 -10.20000913181602 0 0 0
497 1 -4.94428384576066 -0.420174460035474 -10.532355723716488 0 0 0
171 1 -5.2063566521347475 -1.8974886389578511 -8.410879257213278 0 0 0
950 1 -0.2243280902740139 -0.20802411112001273 -10.809888953147384 0 0 0
218 1 -2.648621763224634 -1.1004847508127522 -9.610416263922621 0 0 0
951 1 -0.45100776102944806 -1.644172825476275 -8.840938809361862 0 0 0
60 1 -12.668715074740794 -12.357111291302347 -7.914134223207777 0 0 0
488 1 -8.699893185294926 -0.06768175800018561 -7.501028094909191 0 0 0
428 1 -2.557537326229852 -2.9524491058759086 -14.033844890095054 0 0 1
112 1 -10.474240586071028 -13.1308005697842 -7.126939365423637 0 0 0
111 1 -9.250179558181053 -10.958078782587187 -6.466448446128137 0 0 0
124 1 -7.948687578894071 -12.351872537322473 -8.195677239254794 0 0 0
556 1 -8.199417933116393 -13.636887511482405 -6.133645891042475 0 1 0
170 1 -5.702177552031204 -12.729428035306722 -7.465613689561244 0 0 0
530 1 -3.6067315416894807 -13.459365508489674 -6.598842144297221 0 1 0
160 1 -4.591745302480378 -10.593848286148258 -6.6715139234279475 0 0 0
14 1 -1.0564925344190907 -12.463322080446193 -7.646506781117747 0 0 0
206 1 -2.296240488364754 -11.288983657652594 -5.857499751829629 0 0 0
120 1 -11.55512722542377 -10.369384515213646 -7.3149322022487935 0 0 0
68 1 -12.557603735089861 -7.709260912313676 -7.318822385351175 0 0 0
69 1 -13.87826435273282 -9.82785930642298 -8.056282555986797 0 0 0
58 1 -10.25042521217015 -8.426141988459134 -6.4989862535356355 0 0 0
168 1 -6.73905161468233 -10.079982658215902 -7.505324941229992 0 0 0
119 1 -7.760434534646874 -7.563553312485384 -7.699535882327896 0 0 0
110 1 -8.023312528587246 -8.8189178825806 -5.634775055919379 0 0 0
166 1 -5.506895739494087 -8.039169062227387 -6.8984924864917625 0 0 0
215 1 -3.253955923807279 -8.592990731498503 -6.017077534734048 0 0 0
167 1 -3.131767369338677 -7.119779347612315 -7.938361327600412 0 0 0
216 1 -2.044033019412412 -9.930614102460833 -7.841547017275721 0 0 0
214 1 -0.8216517414920386 -7.780734642383868 -7.251281410710633 0 0 0
32 1 -13.598474867712124 -5.0431189541941155 -7.619782611883104 0 0 0
67 1 -11.344623006752089 -5.691540454052612 -6.79219194574024 0 0 0
118 1 -9.135093922055066 -6.206628432751432 -5.944738823360222 0 0 0
127 1 -8.892467472116905 -4.810880063255247 -7.958514425031064 0 0 0
65 1 -10.074077466480102 -3.5639570649523407 -6.160288300245717 0 0 0
117 1 -6.618855258436169 -5.441853284601203 -7.14415259607287 0 0 0
165 1 -4.085972921978488 -4.476115138915178 -8.092763813403618 0 0 0
213 1 -4.446442412855429 -5.977176797169511 -6.261803409013498 0 0 0
212 1 -1.7225738119742644 -5.195396388818121 -7.373337205489733 0 0 0
1135 1 -12.383445342707628 -2.8613625498406936 -7.030347394845833 1 0 0
484 1 -13.328192375629706 -0.23231614682255675 -7.308581880762279 0 0 0
53 1 -10.138059559930372 -0.13860450252164114 -3.938396556604726 0 0 0
481 1 -11.148145413280469 -0.7743276934440733 -6.3685700933784455 0 0 0
125 1 -9.857089627347449 -1.9856886963372151 -8.137691075215358 0 0 0
66 1 -7.799052871441132 -2.570033227609013 -7.20916365577197 0 0 0
498 1 -6.41816772812435 -0.5288714737732594 -6.806460720300926 0 0 0
489 1 -5.4472560243545765 -3.3509690131204124 -6.397807834156213 0 0 0
164 1 -4.196685479445181 -1.23346176798308 -5.913611423347863 0 0 0
163 1 -2.8961965608099014 -2.441869630241335 -7.599572179137261 0 0 0
210 1 -0.7705168660030317 -3.1157060123423843 -6.852830319659047 0 0 0
208 1 -1.803711720862653 -0.42393690684418317 -7.035053196737654 0 0 0
609 1 -11.893432759913416 -13.235196398885215 -3.254430754827087 0 1 0
59 1 -11.702506864574499 -11.763311764881282 -5.340058999720407 0 0 0
113 1 -9.443870351015558 -12.387698137614523 -4.476803645918006 0 0 0
159 1 -7.005071202502963 -11.474409669913243 -5.513808563612297 0 0 0
161 1 -7.164355181640555 -13.015455322978756 -3.565652593966483 0 0 0
150 1 -5.997651838330704 -10.80511120390743 -2.993570437146502 0 0 0
207 1 -4.734253008325364 -12.118067919446323 -4.708246488903088 0 0 0
939 1 -0.19468446797691996 -13.308159942963032 -3.150920619418871 0 0 0
196 1 -2.4137137871086516 -12.663103094231026 -3.812072687723367 0 0 0
8 1 -1.2210325519285377 -10.584139691453798 -3.264960595341062 0 0 0
189 1 -3.358511616258877 -2.0434500374404685 -1.2803160534152092 0 0 0
52 1 -12.97906621929989 -10.545373122407023 -3.5243361819092147 0 0 0
30 1 -12.749326358105824 -9.124429651323378 -5.431280315181022 0 0 0
57 1 -11.523238453362705 -7.132209410936109 -4.793966472248437 0 0 0
27 1 -11.70343348058893 -8.318379638960565 -2.7951804396155264 0 0 0
62 1 -13.001940016654151 -13.806519493474381 -5.948416889944147 0 0 0
49 1 -10.52507640752022 -9.747721293088308 -4.623570761480492 0 0 0
109 1 -9.295474002941324 -7.663058679966161 -3.9637665971914586 0 0 0
102 1 -8.269554327641975 -10.28004021516444 -3.751234441615292 0 0 0
100 1 -6.9496343200643045 -8.218137304980488 -3.1220219377258243 0 0 0
158 1 -5.775142393494157 -9.383750589052381 -4.824907202215657 0 0 0
205 1 -3.489884891704156 -9.981293594230257 -4.011304486881752 0 0 0
156 1 -4.380091765831256 -7.412520046594585 -4.246371541343546 0 0 0
204 1 -0.9974519607046695 -9.269673856215341 -5.2286800544563725 0 0 0
203 1 -2.246033674239431 -7.869553315083254 -3.501475452100056 0 0 0
29 1 -13.830063129838708 -6.318568967624932 -5.653501347076231 0 0 0
28 1 -12.482737988096858 -4.227304420501026 -4.864835095668068 0 0 0
26 1 -12.790415089139044 -5.752855293542741 -3.048264522813545 0 0 0
56 1 -10.266670569682931 -5.065700439108015 -4.278772538735915 0 0 0
108 1 -6.709715219786705 -6.80540993714924 -5.146776529638064 0 0 0
107 1 -8.21868156196794 -5.686321540589605 -3.4141572561031612 0 0 0
116 1 -7.7052107559709055 -4.1547805768006345 -5.380249207177512 0 0 0
155 1 -5.638070042867824 -4.694322251462443 -4.5416694235948665 0 0 0
211 1 -3.157366934289618 -3.9723050756929457 -5.707969193453518 0 0 0
201 1 -3.3283760653435728 -5.250316040405062 -3.541463963346814 0 0 0
202 1 -1.9962814719896755 -6.5685899489667845 -5.5017773831299355 0 0 0
200 1 -0.7917051360447296 -4.4864335882239725 -4.9804431010263475 0 0 0
190 1 -1.0692142229895847 -5.952097942434271 -2.929029191044327 0 0 0
25 1 -13.829326607851206 -3.044011404296194 -3.2121652965159804 0 0 0
1125 1 -13.620958167567613 -1.577649103554453 -5.171129885242593 1 0 0
75 1 -11.297887026407338 -2.20798315982991 -4.437217038318218 0 0 0
103 1 -9.819805556019684 -13.683250435553674 -2.3768297963746736 0 0 0
114 1 -8.977029670933224 -1.4182243490239443 -5.430748822840211 0 0 0
54 1 -9.058609578527495 -2.987694465812531 -3.483978857462965 0 0 0
106 1 -6.722897127764249 -1.9211766731212823 -4.579501242501532 0 0 0
105 1 -8.009419269717618 -0.7255361040069079 -2.9234773484746093 0 0 0
154 1 -4.341130951128365 -2.58002841843469 -3.8461064330390773 0 0 0
152 1 -3.090337678679157 -0.62540332942676 -3.1919257539385306 0 0 0
143 1 -6.007074743897055 -2.8118185377096108 -0.21104277896193047 0 0 0
199 1 -2.0033387290007045 -3.172769602555654 -3.087793028465457 0 0 0
209 1 -1.9610130283465423 -1.8166895299187402 -5.057117390722739 0 0 0
1154 1 -13.156258809943845 -11.975622394590173 -1.5591242770436597 1 0 0
432 1 -0.47291940901917506 -12.859980926423255 -14.144439745377301 0 0 1
51 1 -10.729771248909913 -11.081228919289362 -2.656857155191716 0 0 0
96 1 -11.100532343749162 -12.447682952668835 -0.6390447613151995 0 0 0
70 1 -8.485406145203422 -11.691173393072033 -1.829111627118488 0 0 0
44 1 -6.232282937603147 -12.24861204213974 -1.0240334456134796 0 0 0
197 1 -4.913752221511043 -13.51371725641297 -2.836262986472674 0 0 0
19 1 -3.960140773857022 -12.850193642986376 -0.07846833845241719 0 0 0
195 1 -3.831748463389644 -11.410201204412202 -2.081313912667323 0 0 0
4 1 -1.545157445656164 -12.06704974685543 -1.2953973049770706 0 0 0
50 1 -11.86509690076245 -9.85242397585122 -0.8868476922393871 0 0 0
1152 1 -13.041336786823019 -7.234759225944751 -1.0550945766203839 1 0 0
48 1 -10.858236243004106 -7.744783711218751 -0.24589419912601862 0 0 0
101 1 -9.510461826568104 -9.014463470576377 -1.9005230556354178 0 0 0
149 1 -7.223851784621994 -9.712963444610967 -1.2055509428775135 0 0 0
147 1 -6.211773359342136 -7.634918900521428 -0.6353530260567126 0 0 0
45 1 -4.973768067563297 -10.254700733193294 -0.2895665316183873 0 0 0
148 1 -4.758491386434018 -8.836231586768502 -2.2741138687464417 0 0 0
3 1 -0.29650293629625857 -10.05115220529995 -0.6864053638692198 0 0 0
194 1 -2.4838073282888935 -9.41025615808688 -1.508922795438238 0 0 0
192 1 -1.2046177053895093 -7.380115703893688 -0.9162265615274272 0 0 0
153 1 -5.630072729281148 -1.3760408379548572 -2.216960417354363 0 0 0
46 1 -11.788880704156393 -4.9865297357638525 -0.543881057890804 0 0 0
55 1 -11.615933768229073 -3.656148763588879 -2.502504527765426 0 0 0
47 1 -10.692153455266403 -6.2986617842024835 -2.1699617943368974 0 0 0
43 1 -9.336421435734465 -4.333100347035101 -1.5357265048939066 0 0 0
99 1 -8.319168415584166 -6.876500199832463 -1.2762703041959664 0 0 0
94 1 -6.895857403687824 -3.5390602433777936 -2.739420409576999 0 0 0
98 1 -7.018278812375856 -4.91505277729828 -0.7406308314772456 0 0 0
157 1 -5.86659863973558 -6.112591840577079 -2.616504032995431 0 0 0
146 1 -3.497900782193666 -6.792077744218222 -1.6841736112776537 0 0 0
144 1 -4.655645930004278 -3.970885937918789 -1.9007994625197089 0 0 0
2 1 -0.13671079888325188 -5.19083136267135 -0.22797967360614457 0 0 0
191 1 -2.30368958018855 -4.793974139571278 -1.2035126254332766 0 0 0
42 1 -12.858316997947648 -2.3120941079085284 -0.7048276549505754 0 0 0
470 1 -12.684305917017063 -1.0264457292614928 -2.6928400288797523 0 0 0
41 1 -10.409136291553802 -1.614503231596398 -1.911667783265699 0 0 0
93 1 -8.178977116041626 -2.1582828084467813 -1.0771605736140177 0 0 0
400 1 -2.9495660995452386 -13.811425513736156 -12.989658051904952 0 0 1
944 1 -0.20703515305892495 -11.80717674960215 -5.161753645701294 0 0 0
1155 1 -13.960075960485465 -7.868834361782196 -3.728021262613055 1 0 0
31 1 -14.008171773476136 -11.192020910976339 -6.033050374065045 0 0 0
330 1 -12.216576586206063 -11.168105794464804 1.1912465725141992 0 0 0
334 1 -13.566865053780724 -13.409643213606506 0.36551399168624954 0 0 0
318 1 -9.955449974829897 -11.960017793631387 1.9422357142939077 0 0 0
812 1 -8.884064333967562 -13.10143383592087 0.08233910161689373 0 1 0
306 1 -7.484079948985146 -11.178173550196522 0.7683197155421748 0 0 0
317 1 -7.823773643620111 -12.548083072027017 2.8725373251977366 0 0 0
304 1 -6.573462467034272 -13.670799579056688 1.0076323440087709 0 0 0
305 1 -5.276057464966476 -11.708211749734696 1.6900161189943788 0 0 0
287 1 -3.0943297578860935 -12.290858952191801 2.510604535710261 0 0 0
20 1 -2.841814873749426 -10.777279118682738 0.5649390264570044 0 0 0
280 1 -0.6007357344694757 -11.515802663089154 1.3141921178309541 0 0 0
999 1 -1.7577745456255354 -13.58399126746497 0.6223471681168871 0 0 0
123 1 -13.078285881814947 -8.589650057816458 0.8600616060379718 0 0 0
97 1 -10.909576030611003 -9.132701930146478 1.8269680288299401 0 0 0
319 1 -8.790920578354196 -9.8303929544722 2.5502524180276254 0 0 0
320 1 -9.758813443078902 -7.015176940504162 2.3935545768169675 0 0 0
321 1 -8.593112040770787 -8.314486847109228 0.589842952123453 0 0 0
270 1 -9.304485698362587 -2.55487479836256 13.783627914086008 0 0 0
307 1 -6.39173524185674 -8.9882149225126 1.4046478345481912 0 0 0
289 1 -4.120397641005415 -9.57112907224726 2.212066217863125 0 0 0
193 1 -4.005442847767522 -8.216433096664748 0.26858326905237817 0 0 0
291 1 -5.0138289360824135 -6.83583195804611 2.007209481324331 0 0 0
290 1 -2.867419209021005 -7.449641270805676 2.7604378911166947 0 0 0
281 1 -1.541199788476991 -8.667864393238938 1.182338589373222 0 0 0
336 1 -12.021327668887032 -6.419445358802037 1.376358269108552 0 0 0
246 1 -13.028671756566947 -3.7247114336977827 1.1735173851801974 0 0 0
322 1 -10.901145285720181 -4.374909261847938 2.1190497482754296 0 0 0
95 1 -9.626592797373094 -5.650390847535421 0.32711701596323195 0 0 0
240 1 -8.317421385461795 -3.695600376527965 0.9831273847387738 0 0 0
308 1 -7.19594686072117 -6.366268908093191 1.1548460365829012 0 0 0
293 1 -6.1101798344338 -4.176277795425149 1.8076628437734001 0 0 0
292 1 -3.840952188516642 -4.8521523115849785 2.5691013413913524 0 0 0
426 1 -1.4633848308817203 -13.688004392875735 11.541606479650454 0 0 0
283 1 -2.51776643603276 -6.242460091553966 0.7611793403550546 0 0 0
282 1 -0.23815678883940095 -6.660931489910121 1.7302850270437702 0 0 0
284 1 -1.3880082665696634 -3.919634617866846 1.4092717905638565 0 0 0
247 1 -11.78802256691591 -1.772794908679991 1.937723911562756 0 0 0
186 1 -7.3522465335231715 -7.995541957563314 14.114121488848337 0 0 -1
241 1 -9.462213629859397 -0.9746023854273638 0.7618198479645741 0 0 0
239 1 -9.53300142612477 -2.420147157637576 2.7095713550459273 0 0 0
932 1 -13.57395766532361 -0.1416977713802119 10.049373224547022 0 0 0
237 1 -7.174571653504555 -1.5309771770607874 1.520215534577245 0 0 0
285 1 -3.6986435199897496 -3.4430709506197488 0.5638666022780381 0 0 0
236 1 -4.942874793986821 -2.2001609071107104 2.5583030704702168 0 0 0
235 1 -4.682529107911771 -0.7977877586133797 0.49319822145263004 0 0 0
234 1 -2.4967046006724 -1.4376723299697574 1.3546733007320793 0 0 0
469 1 -0.2975853912579751 -1.8050596971896464 2.137653496676503 0 0 0
323 1 -12.400560191010769 -12.732495319476056 3.0398853371327768 0 0 0
1334 1 -13.713764009387967 -11.418922690608117 4.910762478766436 1 0 0
331 1 -11.31784965061415 -10.59590376355022 3.791953800408937 0 0 0
311 1 -10.297591197545309 -13.267295879955924 3.9603122007480493 0 0 0
310 1 -8.974715756309763 -11.296951339108766 4.592360518690665 0 0 0
382 1 -6.77229882636864 -11.720738835422056 5.3393015962592365 0 0 0
296 1 -5.5335219112688385 -13.023378108285362 3.7283404958809037 0 0 0
297 1 -4.2299345829001425 -10.941509134825061 4.266446967853579 0 0 0
295 1 -3.2595522956578513 -13.63261839553205 4.476218775051109 0 0 0
441 1 -0.6767636641832446 -12.971415221327383 3.3118445594594306 0 0 0
439 1 -2.023132035277701 -11.491557986574565 5.073515062484223 0 0 0
332 1 -13.464874590883676 -10.039678196148472 2.9810046995128587 0 0 0
333 1 -12.207974582103128 -7.948903011893278 3.617959510552282 0 0 0
326 1 -12.447895163161418 -9.48404814758507 5.494557321390772 0 0 0
313 1 -10.01650316055606 -8.4600831402206 4.386794731263343 0 0 0
298 1 -6.539895066149667 -10.337889570917167 3.3911419906939244 0 0 0
312 1 -7.845112189022459 -9.103589946010057 5.1148927715637775 0 0 0
300 1 -7.6563366167100035 -7.582172059729698 3.299368357561786 0 0 0
299 1 -5.3928312581538105 -8.226031363392607 4.016256100543469 0 0 0
437 1 -3.14086175780265 -8.788269492820673 4.665009479245249 0 0 0
288 1 -1.7560147025117718 -10.342602687947313 2.8626153799194327 0 0 0
463 1 -0.7750450784673735 -8.17970611367316 3.6299187657835397 0 0 0
328 1 -13.590845633225548 -6.675094360607799 5.221186926354207 0 0 0
250 1 -13.304580282731175 -5.258316480877463 3.2776480233438967 0 0 0
315 1 -10.99543802566788 -5.847003119677169 4.0606298804373 0 0 0
302 1 -8.497814311847812 -5.064344952345017 2.9839739188533336 0 0 0
314 1 -8.869666519193249 -6.393410937474958 4.956914153790457 0 0 0
242 1 -9.829556485969036 -3.7485111324989795 4.680115203855177 0 0 0
301 1 -6.249310619790236 -5.690670384966463 3.8136980854145577 0 0 0
435 1 -4.05396030798487 -6.240548485338333 4.7015038199376065 0 0 0
434 1 -2.886234665216147 -4.2880463965651625 5.362773848732644 0 0 0
433 1 -5.112119847632565 -3.6350261196517497 4.484165114408835 0 0 0
436 1 -1.8732262446983263 -6.80201387742372 5.413201540522529 0 0 0
462 1 -1.5907935973084264 -5.236327470724284 3.448698329037743 0 0 0
243 1 -12.10671631371038 -3.168297766652735 3.8288589808712814 0 0 0
734 1 -13.146724412964957 -0.4942055332599118 3.726586327405407 0 0 0
244 1 -10.697846464233741 -0.9691710695937434 4.458495670761735 0 0 0
262 1 -8.605644952816712 -1.6874996766951291 5.477346073873324 0 0 0
722 1 -8.476864600563637 -0.30768259916906615 3.40823871618203 0 0 0
238 1 -7.223971272037438 -3.0431763377975205 3.549841384991158 0 0 0
255 1 -6.1904748174032695 -0.8615740478353526 4.264582343619242 0 0 0
254 1 -3.801288514336976 -1.5043234959152176 5.129615464881251 0 0 0
257 1 -4.488133325198046 -0.9931250022397276 11.506162312726275 0 0 0
460 1 -2.8156280219334437 -2.752066609508164 3.298977259019363 0 0 0
461 1 -0.3790072924350145 -3.2682974132164073 4.115703701355908 0 0 0
251 1 -1.4451880438915694 -0.7651382275896914 3.991883065001673 0 0 0
324 1 -11.465391105545205 -12.10817179881601 5.798043898289304 0 0 0
337 1 -11.694343895700484 -13.326197109183108 7.701426266120826 0 0 0
1364 1 -12.745065163024147 -10.7483687259583 7.568726790526757 1 0 0
427 1 -4.716613576166717 -2.409723011888767 13.549533762089588 0 0 0
361 1 -9.179104631417266 -12.579619726435723 6.463395783697994 0 0 0
359 1 -10.298208467117952 -11.309701815054815 8.297214521600257 0 0 0
384 1 -6.867824505681017 -13.135176602057339 7.416028419593815 0 0 0
383 1 -5.856541948804969 -10.990064617654834 7.958025214583731 0 0 0
325 1 -8.175136046708023 -10.457234316592976 7.137000782156793 0 0 0
408 1 -4.642962639223986 -12.314723075407606 6.166444969180752 0 0 0
245 1 -10.456263741857203 -2.9939052155050927 0.04528432734151444 0 0 0
409 1 -2.322876803555271 -12.965408946093264 6.933260976201634 0 0 0
448 1 -1.170990499978254 -10.944649853062385 7.491917009351489 0 0 0
338 1 -11.471731349866957 -8.504449639455512 8.279445806256923 0 0 0
1329 1 -13.619894783440891 -8.239399620142816 7.140317446006154 1 0 0
327 1 -11.31149186992133 -7.218872891439096 6.098962208778225 0 0 0
357 1 -10.323821703538117 -9.885579126770665 6.490965350250356 0 0 0
380 1 -9.15007745023351 -7.820095685037055 6.909513331252274 0 0 0
404 1 -6.677693185414505 -7.046513043531633 5.74541251939344 0 0 0
381 1 -6.931445783671814 -8.437288465252596 7.819944241416287 0 0 0
407 1 -3.367555567246047 -10.211824147842563 6.875935896708572 0 0 0
406 1 -5.613308591144886 -9.600609372742895 5.921653059442519 0 0 0
405 1 -4.389038433529988 -7.5520259986967595 6.74976249142529 0 0 0
438 1 -0.7209739255429071 -9.368982932244442 5.614989461412495 0 0 0
446 1 -2.1238038725567794 -8.315316943812936 7.338000121545651 0 0 0
248 1 -12.258061915330318 -4.532964092510527 5.814794832760416 0 0 0
355 1 -12.426096628013683 -5.934516960152445 7.904754830419776 0 0 0
378 1 -10.069885187096963 -5.259908317332949 6.703035698626518 0 0 0
402 1 -7.597095652500329 -4.357450659903252 5.646613544979662 0 0 0
379 1 -7.880946025344353 -5.674761790078195 7.6451479894573175 0 0 0
410 1 -6.619231090489022 -3.7158475774478212 8.249089020875196 0 0 0
403 1 -5.323360435856353 -4.977074231314928 6.520078854184501 0 0 0
444 1 -3.1343253967976565 -5.5872878947433335 7.350097103435058 0 0 0
466 1 -0.6554645036025839 -4.784400160847733 6.084716620729342 0 0 0
445 1 -0.9534970269477956 -6.276756637674575 8.010566991796868 0 0 0
443 1 -1.8936282753967237 -3.486794816031333 7.889892609445312 0 0 0
249 1 -13.34187151587933 -1.9087981666138383 5.638759728507029 0 0 0
276 1 -13.532906160850173 -3.315863319326594 7.655609322456481 0 0 0
277 1 -12.432381354790339 -1.3444356388222172 8.259298969618118 0 0 0
268 1 -11.100219940944402 -2.439429724888214 6.470421364156152 0 0 0
267 1 -8.858574314959899 -3.20765684613111 7.423330542064427 0 0 0
269 1 -9.970619645757875 -0.4173120870128546 7.116977421318275 0 0 0
260 1 -7.5825901842216545 -1.1872153293673726 8.033725395108164 0 0 0
261 1 -6.38534125028909 -2.348764687633249 6.213809030060901 0 0 0
835 1 -5.071240964880808 -0.3045298067677358 6.9562459512554184 0 0 0
442 1 -4.203197353726862 -2.911744943587488 7.101311039204457 0 0 0
253 1 -2.883418307782012 -0.8973598570741146 7.754589915165607 0 0 0
465 1 -1.6983681812074831 -2.145157285368464 5.940116552552599 0 0 0
459 1 -0.11729005309235419 -6.966690332003647 12.690864635713435 0 0 0
345 1 -12.950250159367302 -12.17106265057276 9.476023494037513 0 0 0
346 1 -10.707053104230546 -12.730824141361786 10.209333886102598 0 0 0
366 1 -9.460538976079242 -10.728216187368655 10.902041715304687 0 0 0
368 1 -8.448240477973233 -13.308860270424946 11.118935833205423 0 0 0
360 1 -8.194579548718018 -11.83197713058981 9.079874504787362 0 0 0
392 1 -5.93140612959685 -12.389415740386314 9.963842852659901 0 0 0
416 1 -3.5686083853128068 -11.782220192230662 8.798384801103634 0 0 0
393 1 -3.801024556647823 -13.039172037600316 10.86791732928437 0 0 0
417 1 -1.2743803592188119 -12.277186639052644 9.678442394510096 0 0 0
91 1 -12.120200931881662 -12.912695405936791 14.10367469566302 0 0 -1
344 1 -11.792140410649885 -10.026723979150578 10.126021108210264 0 0 0
1357 1 -12.83658989189409 -7.329370592493323 9.932399162378722 1 0 0
358 1 -9.252092722951131 -9.214122345635708 8.962998907701433 0 0 0
364 1 -10.443913277540805 -7.974271199047404 10.704083584005105 0 0 0
390 1 -7.021780063460402 -9.787384973217955 9.765074333193972 0 0 0
388 1 -8.109157802371119 -7.1447293482500225 9.678725077007055 0 0 0
389 1 -5.886401474507608 -7.617635165651877 10.542285745826863 0 0 0
391 1 -4.690336187593502 -10.367961387628945 10.70793055465941 0 0 0
414 1 -4.555249424280067 -9.048934642079328 8.693054416711526 0 0 0
422 1 -3.5144058892505505 -8.331792982363517 11.20880494827692 0 0 0
413 1 -3.3230248853698505 -6.940111361968368 9.13402078566585 0 0 0
415 1 -2.2638533539658425 -9.62673705967661 9.46710546402618 0 0 0
423 1 -0.9639746869665977 -7.558219261535004 9.923891179069365 0 0 0
145 1 -4.7370626785491226 -5.516074586665768 0.06082748646768543 0 0 0
275 1 -11.167778100399278 -3.891962094997302 8.43001926883981 0 0 0
1327 1 -13.74683028706148 -4.810301554513602 9.651913041501086 1 0 0
362 1 -11.52915800425582 -5.303402199187557 10.421526091201745 0 0 0
356 1 -10.221405699203402 -6.585180791719651 8.886810014006517 0 0 0
386 1 -8.962873837514804 -4.363084252065544 9.356984155494256 0 0 0
412 1 -5.665104069026064 -6.381568152405495 8.463382182611145 0 0 0
387 1 -6.898305391148035 -5.093441836630426 10.298045217853502 0 0 0
420 1 -4.585942522204244 -5.553365245835035 11.079410371747134 0 0 0
411 1 -4.465489300003881 -4.225211381889295 9.106261030475569 0 0 0
452 1 -2.170779007138462 -4.98483555783816 9.884076653399962 0 0 0
256 1 -3.517977214861599 -0.27143505830141024 14.048936700632108 0 0 0
273 1 -12.534324757315549 -2.7020627863948867 10.456314543720584 0 0 0
274 1 -11.436388778761243 -0.5689831788911626 10.91044675478717 0 0 0
272 1 -10.26730343632459 -3.3135951106574595 11.142448473839178 0 0 0
266 1 -10.088197242965364 -1.8174117338200109 9.266696352744958 0 0 0
258 1 -6.69321835098498 -0.31997878153973147 10.672898857403933 0 0 0
265 1 -7.767285680851167 -2.440185685095898 10.10063848390313 0 0 0
418 1 -5.641348376534909 -3.0839483411101796 10.936537954602343 0 0 0
259 1 -5.3607293021239375 -1.7054008806738796 8.884664069039644 0 0 0
450 1 -3.191217983505359 -2.225678878298236 9.74047833483639 0 0 0
252 1 -1.9989581685513844 -0.12049053663003129 10.203480803149116 0 0 0
468 1 -0.7103745258304119 -1.429883768298863 8.636385287090171 0 0 0
1239 1 -1.0766875306821326 -2.9192097730959023 10.6312317043278 0 0 0
350 1 -13.183644290483919 -13.658350422651923 11.40849679761969 0 0 0
349 1 -11.988910553421983 -11.536702904907965 12.038380742863122 0 0 0