LAMMPS data file via write_data, version 2 Aug 2023, timestep = 0, units = metal

1865 atoms
3 atom types

-14.19988922746786 14.19988922746786 xlo xhi
-14.128556431026807 14.128556431026807 ylo yhi
-13.653942233931787 13.653942233931787 zlo zhi

Masses

1 55.847
2 1.008
3 1.008

Atoms # atomic

112 1 -13.42349612897467 -11.54617182763762 -12.487578369252576 0 0 0
329 1 -11.574513049773076 -11.832298367639476 -10.8362443033439 0 0 1
209 1 -14.112088940290743 -2.308705643591816 -12.925212774677911 0 0 0
186 1 -11.293062458025485 -2.0096703189824314 -2.4375897144136474 0 0 0
290 1 -5.335304908051414 -8.270434560549958 -0.11656355062357271 0 0 0
188 1 -9.47988181175005 -2.1596905585218007 -0.7866270816247631 0 0 0
117 1 -9.659023538544538 -12.878591172241059 -12.141625599442962 0 0 0
55 1 -7.003170939116762 -11.853847158654906 -12.433345645887059 0 0 0
54 1 -7.766899765409504 -13.130012822579044 -10.472003602404765 0 0 0
214 1 -8.59736863214566 -0.8526207912847461 -2.8444688669204385 0 0 0
57 1 -5.115185988173732 -12.135834256134764 -10.921867257362695 0 0 0
522 1 -3.1896274015044117 -13.24019051843564 -11.899846025681455 0 1 0
204 1 -11.441717109996505 -0.1374492113018082 -10.666833563582049 0 0 0
74 1 -0.725562149560302 -12.27071389432413 -12.193670870224937 0 0 0
107 1 -12.667925613516047 -9.42779717744271 -11.830167788833348 0 0 0
100 1 -8.853153740596442 -10.616606814344133 -11.321296317853953 0 0 0
178 1 -10.719245361809167 -10.53736659904691 -12.960655589812488 0 0 0
101 1 -10.823849451000473 -9.524484048585785 -10.304224594341601 0 0 0
39 1 -6.178428120578328 -9.691932094816355 -11.718307724717048 0 0 0
367 1 -7.98219827284581 -9.375627660344584 -13.34064325847787 0 0 1
58 1 -4.198163832611165 -10.884656314510778 -12.700480133221594 0 0 0
44 1 -3.5769197290695853 -8.596145913162173 -12.016749629458479 0 0 0
59 1 -2.538064484974342 -11.101739744167658 -11.081795378668803 0 0 0
331 1 -1.74600283956282 -9.666753284735265 -13.133423692256496 0 0 1
62 1 -1.6968699020286202 -8.831407038566322 -10.506495787711538 0 0 0
1129 1 -13.564846590367079 -6.917366238229992 -12.696803808268786 1 0 0
173 1 -11.905138179154887 -7.0899551690732965 -11.056600118305422 0 0 0
328 1 -10.029647318810024 -8.222499378006635 -12.165029925855022 0 0 1
22 1 -9.276230868020338 -6.003938844059094 -11.39179138959199 0 0 0
319 1 -11.147276342687487 -5.826254022034798 -13.133068944671338 0 0 1
38 1 -8.06525390092086 -8.505893987325887 -10.703483632981827 0 0 0
365 1 -7.371444701357466 -7.116995269851531 -12.586738518304044 0 0 1
23 1 -5.443314233464044 -7.499601317087606 -10.943300193031298 0 0 0
326 1 -4.706273033518713 -6.127877256628228 -13.069013238009383 0 0 1
25 1 -2.796920579819945 -6.402587206742486 -11.550484674812427 0 0 0
43 1 -0.9236923102100132 -7.554047441255974 -12.424799558848244 0 0 0
180 1 -13.101201685801037 -4.588023402684273 -12.011825025701928 0 0 0
174 1 -10.294064311682861 -3.554697501572557 -12.42515409157627 0 0 0
175 1 -11.243707662784901 -4.808206918624652 -10.590975248078053 0 0 0
203 1 -8.525317563964876 -3.7223549735318233 -10.902226041040402 0 0 0
327 1 -6.488033747214066 -4.931834186872953 -11.915477136876781 0 0 1
220 1 -13.14991500000471 -0.8267343434223449 -1.2190121644917298 0 0 0
26 1 -3.802429854873706 -3.993618363004485 -12.40069217250769 0 0 0
166 1 -4.585277298852741 -5.251585304882759 -10.287109946805032 0 0 0
31 1 -1.9266499524812435 -4.123651467363061 -10.8634756814361 0 0 0
27 1 -1.8846629513641986 -5.050163209501767 -13.338467619098411 0 0 0
228 1 -13.363652181633668 -0.030161445750499283 -12.181592029384635 0 0 0
142 1 -0.32252125311226365 -14.033222466800009 -4.032109995980052 0 0 0
210 1 -12.278968641921773 -2.338300289059312 -11.266111062026045 0 0 0
814 1 -11.410177840966801 -0.9861700322043081 -13.2692122940135 0 0 1
260 1 -11.392607777676332 -12.533575125689875 -0.1007292526675414 0 0 0
208 1 -9.559113768054777 -1.2946434540376721 -11.738478370607716 0 0 0
1042 1 -14.116289408683143 -12.910026957748855 -10.626545065033511 1 0 0
4 1 -7.701114945576515 -2.380789749099737 -12.836511069186887 0 0 0
8 1 -5.7375812475935515 -2.6988876598640914 -11.257091368437795 0 0 0
6 1 -4.901890330016741 -1.370849760117041 -13.337700021013156 0 0 0
1 1 -5.1136399383483475 -0.5335822846713008 -10.605641616407816 0 0 0
10 1 -3.260763817535297 -1.576355060362097 -11.797565364303912 0 0 0
28 1 -1.2807301884570848 -2.730857700028066 -12.765783777267954 0 0 0
11 1 -0.4388823022533135 -0.40459128622764773 -12.255168791436663 0 0 0
375 1 -5.1484471592866665 -13.24274893378702 -13.486737412987804 0 0 1
113 1 -12.321602825280655 -13.017887850044339 -8.992692574941042 0 0 0
753 1 -6.89714206632821 -1.0702907899973422 -1.1613984803392619 0 0 0
115 1 -9.681102707007565 -11.940689004677672 -9.31968212571358 0 0 0
121 1 -10.41077027965477 -13.253643442360191 -7.493937978129272 0 0 0
131 1 -7.917179625551871 -12.155900404804777 -7.877900629356346 0 0 0
124 1 -5.97356668137312 -13.331898679996806 -8.890606127664249 0 0 0
132 1 -4.1168423826264835 -13.67781884132408 -7.194920399304944 0 0 0
61 1 -3.3260433672664096 -12.498693410365698 -9.215147857691079 0 0 0
76 1 -1.3449227668540367 -13.52932634135616 -10.335495024954398 0 0 0
65 1 -1.382022235012938 -12.702678941912167 -7.77703610762111 0 0 0
63 1 -0.51744569260498 -11.36401791689082 -9.574449644609334 0 0 0
114 1 -13.485583991254956 -10.60131923872491 -9.743900283626477 0 0 0
104 1 -13.488874687107717 -9.694770720976134 -7.155736878127821 0 0 0
102 1 -11.564047094068165 -10.797412932986427 -8.2082649532099 0 0 0
123 1 -8.900577616671217 -9.70935523097388 -8.675693622258501 0 0 0
90 1 -10.76636556126363 -8.487997634838393 -7.495632295409848 0 0 0
89 1 -9.69009552116103 -10.899048628723946 -6.701743795989428 0 0 0
56 1 -6.901884117243435 -10.935501248540584 -9.75134035348787 0 0 0
87 1 -7.0149707901200635 -10.029550359949328 -7.101699722023201 0 0 0
40 1 -6.37515816887044 -8.682467216589146 -9.009313934841629 0 0 0
60 1 -5.179949337307697 -11.127784462034688 -8.120577296526589 0 0 0
41 1 -4.313915874703243 -9.937568510198094 -10.118970088318294 0 0 0
79 1 -4.360263106916902 -8.885091107279717 -7.392513225649105 0 0 0
64 1 -2.5939577043236213 -10.172202607073999 -8.460045420863729 0 0 0
103 1 -12.682247087176512 -8.489262533193607 -9.153531297694151 0 0 0
176 1 -13.828458618232071 -5.962184097949622 -9.994484687609813 0 0 0
177 1 -11.967466732892445 -5.988591459255611 -8.468474618039997 0 0 0
24 1 -10.043225167755716 -7.262335088081828 -9.49368410442845 0 0 0
170 1 -10.152100888045084 -6.297262185711778 -6.916414274907862 0 0 0
5 1 -7.376734286742351 -6.11774364885825 -10.009716138620995 0 0 0
88 1 -8.157870841424945 -7.429859855396692 -8.050435440713638 0 0 0
80 1 -5.566936781508906 -6.569683651192417 -8.389507882092909 0 0 0
45 1 -3.555534061452976 -7.685934813402681 -9.347300152793204 0 0 0
159 1 -3.5587586103659667 -6.7231065759182655 -6.6315237949932415 0 0 0
46 1 -1.6835512591984703 -7.749420866172896 -7.807990673012867 0 0 0
47 1 -0.8922629303029908 -6.513140659276303 -9.952459534649353 0 0 0
206 1 -13.048261931134991 -3.512522969401509 -9.314656635544347 0 0 0
207 1 -13.775772023523697 -5.029526022109895 -7.284246477288193 0 0 0
169 1 -11.099159421108318 -3.75789035768255 -7.70658857503024 0 0 0
167 1 -9.298961417375356 -4.9657634941307744 -8.869679646829665 0 0 0
197 1 -8.604197454746117 -2.7146591937431808 -8.162965883612966 0 0 0
196 1 -6.622911818846693 -4.005825418039738 -9.375085748565299 0 0 0
160 1 -7.491190627878214 -5.151165869306913 -7.3475830800955935 0 0 0
29 1 -4.767759460631591 -4.180618797681223 -7.662363430937155 0 0 0
9 1 -3.927181048713104 -2.93228889146409 -9.667369978947756 0 0 0
30 1 -2.7235527888419977 -5.453015844321339 -8.65791670911992 0 0 0
35 1 -0.850402505821183 -5.5275119507794805 -7.109494437955303 0 0 0
32 1 -0.20116884004972135 -4.276949993359743 -9.145187944175497 0 0 0
14 1 -2.1038618429341227 -3.031146046109148 -8.07566510726296 0 0 0
213 1 -4.865461369219753 -2.314943327713671 -2.386288180862369 0 0 0
227 1 -12.284104654443524 -1.2485984123599412 -8.682910965027158 0 0 0
205 1 -10.33146299663639 -2.5662407652654053 -9.739386056094911 0 0 0
199 1 -10.27818050113688 -1.5283566413511522 -6.9988724715016 0 0 0
226 1 -9.564821400080149 -0.269320390111325 -9.06405388856052 0 0 0
225 1 -7.719974551733554 -1.5135028349220025 -10.167337632076558 0 0 0
222 1 -7.633105084830248 -0.43671952727893704 -7.466904559590878 0 0 0
189 1 -5.900140180343364 -1.7087647738806755 -8.675234651133735 0 0 0
13 1 -3.2463622364563456 -0.45203174080800856 -9.095331234891514 0 0 0
2 1 -3.960620744882835 -1.7951010612822014 -7.1460206825207875 0 0 0
15 1 -1.480156292580018 -1.7093658818602702 -10.194770004588086 0 0 0
505 1 -1.4613493590723934 -0.7313968752026234 -7.397080059584428 0 0 0
119 1 -12.272961073973963 -12.151514616773763 -6.1798768529007075 0 0 0
118 1 -13.236149518162714 -13.334761325185536 -4.385152411743844 0 0 0
127 1 -10.471813453628654 -12.265714785331529 -4.784331645327095 0 0 0
129 1 -8.576731369762305 -13.46152552686041 -5.861443583343047 0 0 0
628 1 -6.7282663812856764 -13.700359125325699 -4.243674332168755 0 1 0
130 1 -5.9941779444179595 -12.54336561597103 -6.231835223783281 0 0 0
134 1 -5.999639521756139 -11.506680730055217 -3.5036209692737614 0 0 0
136 1 -4.0404077426415 -12.783754569626764 -4.524465278207467 0 0 0
138 1 -3.2487238458881684 -11.474229748286216 -6.515219050128442 0 0 0
510 1 -2.2050647065332036 -13.800472217303092 -5.681962050104364 0 1 0
67 1 -1.3932524805642554 -11.48250605156696 -4.979079722069784 0 0 0
21 1 -3.0374242480835214 -2.4752172189207844 -0.7121323890927975 0 0 0
93 1 -12.513610351701576 -11.105348442372065 -3.65144580808332 0 0 0
172 1 -13.522936056978555 -8.85242735161561 -4.494561370873786 0 0 0
91 1 -11.541030065917731 -9.786664027351764 -5.522982590337957 0 0 0
82 1 -9.668983378141643 -10.116209801272365 -3.9293037859204674 0 0 0
168 1 -8.93234928005387 -8.707851108378684 -5.979730548761316 0 0 0
81 1 -7.808913607233657 -11.264101340872305 -5.159050320983237 0 0 0
96 1 -7.018950661153605 -8.932939030939025 -4.450606045565342 0 0 0
137 1 -5.053506124176353 -10.2408454164842 -5.371051029269378 0 0 0
141 1 -3.3626745473514603 -10.325904756678433 -3.8405615078683493 0 0 0
1142 1 -0.6093613706950958 -10.22645224867118 -6.9924616460851325 0 0 0
99 1 -2.532386486493646 -9.189505073078347 -5.900605702486792 0 0 0
111 1 -0.6983183031534832 -9.286788506196542 -4.170080922957824 0 0 0
92 1 -12.780355491208159 -7.349250446432337 -6.45554190838641 0 0 0
165 1 -12.835725236513142 -6.545152563260698 -3.825737857584178 0 0 0
84 1 -10.906244208737032 -7.56793936259751 -4.931819617924118 0 0 0
162 1 -8.199394669545564 -6.441913673042861 -5.462921842978002 0 0 0
161 1 -6.294948588103205 -7.7069418854360165 -6.440022535535807 0 0 0
156 1 -6.435972221111634 -6.6545218935533965 -3.741334596727592 0 0 0
98 1 -4.478612922626905 -7.799265198082358 -4.75906182909263 0 0 0
153 1 -3.7401210012676547 -5.5768720645277 -3.9330045607293442 0 0 0
50 1 -1.7243967156335032 -6.810732039809667 -5.1703307521619895 0 0 0
1052 1 -0.35895183138520714 -1.457294358005024 -1.133897794601129 0 0 0
3 1 -2.175257382940769 -1.2361180642529224 -2.62588597408992 0 0 0
202 1 -13.797481030359656 -4.04252602628871 -4.571614208996628 0 0 0
171 1 -11.914883261392186 -5.138649628225986 -5.774335349699393 0 0 0
164 1 -10.112680818705943 -5.329393769940527 -4.107120227824625 0 0 0
198 1 -9.286197009457686 -4.089609187185356 -6.172448815109797 0 0 0
193 1 -9.404335020131317 -3.1487791542509544 -3.5249738508437787 0 0 0
200 1 -11.208902992545692 -2.8666931225030226 -5.134593736600127 0 0 0
191 1 -7.339346357069789 -4.250232993666872 -4.577915998143638 0 0 0
190 1 -6.5923623037586765 -2.8917830706538723 -6.621422699631186 0 0 0
154 1 -5.547721884373335 -5.406073997010624 -5.686430107933392 0 0 0
18 1 -4.894379875013472 -3.0642930773599133 -4.995919825160749 0 0 0
34 1 -2.784072154169202 -4.393499222122916 -6.0652591263622915 0 0 0
19 1 -2.9779346726308926 -3.307105392534023 -3.434076158138067 0 0 0
36 1 -0.3125136983932464 -3.2899044756260256 -6.490261675291685 0 0 0
37 1 -0.998135945346803 -4.653471908062066 -4.473489863632551 0 0 0
201 1 -13.126843272102876 -2.6942914082352125 -6.563432750087276 0 0 0
617 1 -12.286378083971915 -0.44670098179004647 -5.941257462874001 0 0 0
224 1 -13.186904425469612 -1.7343672788521225 -3.941317685241941 0 0 0
223 1 -10.500779410231829 -0.7473449671910863 -4.256137757185158 0 0 0
192 1 -8.414554206964452 -1.8848560371469336 -5.469731784210495 0 0 0
217 1 -6.667944215668642 -1.9477225347657772 -3.796705819461323 0 0 0
216 1 -5.978332563566429 -0.696781908461297 -5.877700874104809 0 0 0
507 1 -4.031644804597098 -0.8568869004074795 -4.402298568240431 0 0 0
1071 1 -0.2714632933019665 -2.309712987152823 -3.746872458823443 0 0 0
20 1 -2.2897007578452033 -2.1378617476706623 -5.49037444798361 0 0 0
128 1 -13.272788408214867 -12.352940529058369 -1.6641911915814358 0 0 0
126 1 -11.335448554582376 -13.473976312518332 -2.7701532555785846 0 0 0
261 1 -9.366015800090548 -13.825801354039713 -1.1750237188650754 0 0 0
262 1 -8.771174535980588 -11.517857216690473 -0.4907803242300055 0 0 0
135 1 -8.634782324100556 -12.489664357913266 -3.048921797848383 0 0 0
83 1 -10.65720962389148 -11.243136856538671 -2.034390525427133 0 0 0
631 1 -6.76893983636522 -12.668916833753343 -1.4289816440783856 0 1 0
630 1 -4.999163756726693 -14.043374856597392 -2.457844625744764 0 1 0
139 1 -4.133829479256429 -11.698460616694298 -2.011790551573334 0 0 0
257 1 -2.4196388816581855 -11.970613654649956 -0.35826488209722385 0 0 0
140 1 -2.326582880751932 -12.858778488234616 -2.923460585145291 0 0 0
960 1 -0.4618459758119009 -13.157871675906495 -1.3916753849313057 0 0 0
1036 1 -12.558604749625431 -10.132320360116829 -0.8818326239734287 1 0 0
94 1 -11.685425152583177 -8.883597505394642 -2.8870695901274352 0 0 0
85 1 -9.759462904096283 -9.149955412762957 -1.2794116432435736 0 0 0
263 1 -6.100309728112755 -10.481162974794872 -0.8335818802305042 0 0 0
95 1 -7.812070689581299 -10.245585105166775 -2.4326667936071544 0 0 0
97 1 -5.350539586255664 -9.211886056739784 -2.8300010538739677 0 0 0
109 1 -3.448406600415316 -9.478777182110473 -1.1217215570359151 0 0 0
78 1 -1.5177464288128046 -10.589062097060499 -2.27792223863203 0 0 0
294 1 -0.9402418675307995 -8.382562845382655 -1.5713899182135105 0 0 0
295 1 -11.873766997548248 -7.85277453886315 -0.27304180236350994 0 0 0
1009 1 -13.766053662239463 -7.78232982895807 -1.909052009063858 1 0 0
267 1 -8.9794386615782 -7.905224315793726 -3.363032654892006 0 0 0
158 1 -10.938735958597551 -6.724898943678152 -2.2842759675296964 0 0 0
297 1 -9.25289115904537 -6.836641833926087 -0.610222606714693 0 0 0
108 1 -7.278539659501325 -8.111017211215781 -1.7031368391684634 0 0 0
185 1 -6.557122119500736 -5.791273169454504 -1.0050710803916711 0 0 0
155 1 -4.601546128882175 -6.9763853234046715 -1.9845370381492469 0 0 0
486 1 -6.8405689267876 -0.16640304021240304 -12.226312594058799 0 0 0
292 1 -2.824536574595763 -7.22553587087029 -0.450636404191318 0 0 0
110 1 -2.7600700557263558 -8.108427831634147 -3.1518914956835573 0 0 0
151 1 -1.7971961130615064 -5.944471199737414 -2.5127410379502546 0 0 0
317 1 -8.415159314282086 -4.7766816882750085 -13.427645565023369 0 0 1
253 1 -12.778789496379176 -5.5108396749097235 -1.0322080679287637 0 0 0
195 1 -13.964386163049934 -3.0345415940184566 -2.0245445389893497 0 0 0
194 1 -11.979669168787877 -4.213471071928085 -3.0079933825147407 0 0 0
254 1 -12.185518705394927 -3.2698513373144547 -0.38332513098686505 0 0 0
157 1 -10.15313978950201 -4.491391455655865 -1.4161492504348008 0 0 0
163 1 -8.414265401749809 -5.680786898040234 -2.526103357667875 0 0 0
187 1 -7.5467224146950755 -3.316173540794786 -1.8336582291904886 0 0 0
182 1 -5.68058332989327 -3.546560791957905 -0.3007190329505889 0 0 0
184 1 -5.713228625316473 -4.499668849793899 -2.9371612828881073 0 0 0
183 1 -3.8355212762663324 -4.665643490686273 -1.2955908578367712 0 0 0
1070 1 -1.113647727577174 -3.6840033822578295 -1.7991469408966498 0 0 0
116 1 -12.335313146056798 -14.117965466100888 -11.675674927610176 0 0 0
1046 1 -14.121218216764472 -11.883013185628545 -7.877604558585213 1 0 0
947 1 -14.150293834691404 -0.26168652474355625 -7.538179553705441 1 0 0
143 1 -14.181066388721414 -13.833114888659301 -13.337397580641946 0 0 0
860 1 -12.152359398288981 -13.74048944546175 1.8574492126008266 0 1 0
275 1 -11.428444131416361 -11.54653082938537 2.5907147736048515 0 0 0
284 1 -13.380536253000635 -11.3066844699372 1.0814269376715266 0 0 0
925 1 -14.192809890958106 -0.48096104819085816 6.211394690809847 0 0 0
369 1 -11.545000675648504 -12.755991980404739 13.648182696760689 0 0 0
7 1 -2.313257587373757 -0.4293411047951352 13.629067447934794 0 0 -1
276 1 -9.436634829462761 -12.793931424014716 1.6047041782235834 0 0 0
278 1 -6.892949058951584 -11.774655510316888 1.1167097600515454 0 0 0
269 1 -7.692883111548891 -13.05506791196173 3.1166089861876145 0 0 0
862 1 -7.593010789407985 -14.077493862532219 0.464730041888739 0 1 0
271 1 -3.0986879493371564 -13.279311837328079 1.660999950468403 0 0 0
270 1 -5.01734839329805 -12.095471625441908 2.7914434281563736 0 0 0
1173 1 -14.09678060613906 -12.622057376078354 3.1590097842598333 1 0 0
273 1 -0.3284207693922063 -12.15713346401825 1.3581315598568384 0 0 0
268 1 -1.268209444743004 -13.54990527380692 3.319748686440139 0 0 0
285 1 -12.681582380528294 -9.058306184272675 1.6924207103330406 0 0 0
286 1 -10.722319821767941 -10.271805597171236 0.7111290606007348 0 0 0
277 1 -8.860785694911781 -10.576089856427998 2.3458922958114847 0 0 0
279 1 -6.107678958630608 -9.73030327068485 1.8929814227518271 0 0 0
288 1 -7.919959983176872 -9.293665480890432 0.2984847516824267 0 0 0
280 1 -4.237970513785164 -10.80123719843257 0.8211562648129966 0 0 0
281 1 -3.622187998542522 -8.611615106165033 1.5619061237296723 0 0 0
272 1 -2.3583252941799167 -11.026262829179572 2.4533243662880153 0 0 0
282 1 -1.6378516347346181 -9.670025241437129 0.40502383237938666 0 0 0
447 1 -1.6865865493494727 -8.732587654846679 3.113918714077947 0 0 0
433 1 -11.9152736028978 -6.988853165490403 2.489422090323213 0 0 0
1181 1 -13.766000767020673 -6.7925788168411705 0.8797675450663558 1 0 0
287 1 -9.952951515842832 -8.063413982693145 1.5957004155521854 0 0 0
431 1 -9.199987779506746 -5.807839061853457 2.0925357606762383 0 0 0
296 1 -11.048391656215083 -5.720805145640714 0.5957388932658336 0 0 0
289 1 -8.074311132460359 -8.519835761508272 3.014247597807813 0 0 0
299 1 -7.399823767637421 -7.179323119087192 1.0744188761227296 0 0 0
291 1 -5.527036856479304 -7.509276862436861 2.668657464472801 0 0 0
152 1 -4.597217524007894 -6.006402568161683 0.586669837171085 0 0 0
293 1 -2.783336880369424 -6.286400598678221 2.2316292715143984 0 0 0
283 1 -0.8662413314548996 -7.404813995761861 1.197977181576869 0 0 0
252 1 -12.906440124581927 -4.55249400242114 1.6088956502211715 0 0 0
250 1 -10.31598402309874 -3.4743680788082827 1.1329071193843312 0 0 0
432 1 -11.116953665501335 -4.785262692749388 3.170798888990788 0 0 0
430 1 -8.388084950423082 -3.6126464370866103 2.814398030351324 0 0 0
300 1 -6.54236123864056 -4.867894047702771 1.6277204830705578 0 0 0
509 1 -2.22253728216222 -0.2095467259488153 0.09931425775933711 0 0 0
301 1 -3.883661760293501 -3.783791715001767 1.2958283097888135 0 0 0
427 1 -4.689095060323318 -5.291901491289085 3.2671694262577837 0 0 0
425 1 -2.090499769116448 -3.931112406437512 2.856287981467517 0 0 0
181 1 -1.9945592725327845 -5.0795574199140425 0.2509214882557007 0 0 0
330 1 -0.04577803375938139 -6.208142064501345 12.830196712751 0 0 0
251 1 -12.12723334074679 -2.3737882194066753 2.3070974502394304 0 0 0
235 1 -11.41623162967538 -0.21870120276225258 3.186997369611081 0 0 0
243 1 -11.390851735312218 -0.9361237590154161 0.3805304050095586 0 0 0
1367 1 -13.987901967674839 -2.1367810721837817 0.7850320329806149 1 0 0
249 1 -9.542830385290195 -1.215678377154111 1.827653599539234 0 0 0
264 1 -4.924965335469912 -13.047764302585547 0.10225715041742767 0 0 0
248 1 -7.726618047911216 -2.4383092544299547 0.6965506681694436 0 0 0
246 1 -5.763786403359246 -2.571470349701995 2.305692759746748 0 0 0
237 1 -7.759040168304027 -1.4541531069845473 3.464245316965851 0 0 0
245 1 -3.0647026032123765 -1.523481953115306 2.0618648732952547 0 0 0
725 1 -4.9237960529732 -0.30413766036455314 2.9724804256145667 0 0 0
211 1 -4.8933558422958665 -1.270776216941453 0.40725544606332775 0 0 0
937 1 -1.2386447739225428 -2.6843574413565747 0.8881551078926524 0 0 0
1631 1 -0.34248014264412063 -0.44853494298334695 1.7350988830028395 0 0 0
455 1 -12.283942617008824 -13.024759513540857 4.6898921253800765 0 0 0
304 1 -0.30242810184284785 -1.3443405195682168 12.452182869032466 0 0 0
453 1 -9.714119141116708 -11.87213601180624 4.267014695336652 0 0 0
463 1 -10.398135130746612 -13.297311429927806 6.338229214151127 0 0 0
462 1 -7.826519930901016 -12.057049999717398 5.9222074414401895 0 0 0
461 1 -6.034628450382401 -13.339285868251615 4.901856916056175 0 0 0
459 1 -3.3094820523673025 -12.285901505328157 4.485296294893171 0 0 0
465 1 -4.169946611047173 -13.54433310601736 6.441309655020813 0 0 0
464 1 -1.4249510665694753 -12.558763766135774 5.990108210276091 0 0 0
445 1 -13.28927515248177 -10.483807613478557 3.7393405646657705 0 0 0
454 1 -11.486245592826128 -10.723215252470757 5.4725169153912425 0 0 0
399 1 -13.39290140420734 -9.650756071160151 6.551601384392942 0 0 0
443 1 -10.785314560752898 -9.436571357185931 3.413508747099957 0 0 0
441 1 -8.886511116820014 -9.665797351757917 4.921887640356264 0 0 0
397 1 -10.869618777965705 -8.43798575545206 5.99516212718617 0 0 0
451 1 -6.943967186468679 -10.873612305176238 3.923180557979805 0 0 0
450 1 -7.197650779038649 -9.96194975550052 6.858722096667083 0 0 0
439 1 -6.2823983692596475 -8.672265627071239 4.744024896559868 0 0 0
449 1 -4.337185207471146 -9.806671316227378 3.509923093023854 0 0 0
460 1 -5.256803726093517 -11.045824157073566 5.6336055210127185 0 0 0
448 1 -4.414803716329066 -8.904791307377884 6.1719858714352895 0 0 0
457 1 -0.5779818882274217 -11.217777569940012 4.053797327122222 0 0 0
458 1 -2.5187686914268017 -10.024338674742054 5.11730594206383 0 0 0
410 1 -0.656362220732948 -10.25763381307781 6.7521374921447155 0 0 0
444 1 -12.727920704540962 -8.216251768789082 4.494480880459566 0 0 0
387 1 -11.854701117717235 -6.137611094844012 5.055232743628249 0 0 0
434 1 -13.84327700826904 -5.979117310889352 3.5858160136474204 0 0 0
442 1 -10.00964925116358 -7.255291608999406 4.042857657105635 0 0 0
396 1 -10.10494520297079 -6.326243461662304 6.751009020889359 0 0 0
429 1 -7.353748224451146 -6.196827888003324 3.66901102515531 0 0 0
440 1 -8.288170862978276 -7.4992899014399885 5.639541084813846 0 0 0
438 1 -5.603500739963049 -6.337754517171354 5.375768471983601 0 0 0
437 1 -3.517216523966626 -7.529385616273419 4.238020186619561 0 0 0
435 1 -0.9361339716858144 -6.578731114070524 3.8295341308485042 0 0 0
446 1 -1.678350790839115 -7.816901552376283 5.889703393712473 0 0 0
388 1 -13.791222440977398 -5.159194257197434 6.322381169053738 0 0 0
241 1 -13.095040130438942 -3.783054214445242 4.430596361671718 0 0 0
386 1 -11.101112265505533 -3.830341044827957 5.834322416382555 0 0 0
385 1 -9.248390816786555 -5.100107113484535 4.710473970632577 0 0 0
428 1 -6.523567305652731 -3.8397736644453246 4.30457024044744 0 0 0
383 1 -7.4128813748810956 -5.155674498441014 6.44848580968247 0 0 0
381 1 -4.717487111984639 -4.122362848111608 6.096812907353613 0 0 0
389 1 -1.0393352869528663 -5.514056398112109 6.464160545994158 0 0 0
436 1 -2.884055412908129 -5.33757897825307 4.94504720184759 0 0 0
379 1 -2.1315119174618395 -2.952502251406054 5.601980123273961 0 0 0
1227 1 -0.24774260931079084 -4.334649058289511 4.497791986282543 0 0 0
240 1 -12.327378990067702 -1.5502956908400947 5.10689405900656 0 0 0
313 1 -2.143296854978747 -1.1654512119395655 11.026439378596987 0 0 0
238 1 -9.610190737826594 -0.32623871496165435 4.641413320753422 0 0 0
239 1 -10.372047111112241 -2.588152640370989 3.843011903429648 0 0 0
232 1 -10.399050200313534 -1.7333180766715373 6.542472828249242 0 0 0
384 1 -8.462068886680083 -2.662945716376134 5.490447329791426 0 0 0
929 1 -7.587520977750372 -0.475048923586499 6.165331245821676 0 0 0
236 1 -5.764450583790696 -1.5768831514799615 5.140806919080983 0 0 0
426 1 -3.9162636506604436 -2.812581027883759 3.971175487113605 0 0 0
927 1 -3.1250396100907647 -0.5521244121159725 4.61235004041264 0 0 0
380 1 -4.054135680840307 -1.8935327874159622 6.7913168255774785 0 0 0
424 1 -1.2338945196466575 -1.6632859743916288 3.682333299370079 0 0 0
742 1 -1.340600175865701 -0.6517430610228825 6.289199353093501 0 0 0
418 1 -13.2779490895012 -13.349651317864641 9.308063523445366 0 0 0
409 1 -12.372220765004606 -12.022242887931831 7.39240622617784 0 0 0
407 1 -10.481294548618678 -12.338414596878604 9.121375332882241 0 0 0
416 1 -8.554759464203492 -13.451052442691857 7.957642928334657 0 0 0
414 1 -6.025587906021787 -12.41747195138715 7.680656291596165 0 0 0
748 1 -6.805956078868613 -13.739328264997363 9.499233560804019 0 1 0
421 1 -4.0762239471608925 -12.693939856489354 9.183945830623575 0 0 0
420 1 -2.2636465822742693 -13.895603528263628 8.000663885959263 0 0 0
374 1 -1.5898157631816616 -11.634058424394194 8.764215909683585 0 0 0
1168 1 -14.096283913044426 -13.470196788060857 0.17882562847406724 1 0 0
361 1 -12.551642307843892 -11.132805315728913 10.143152771810836 0 0 0
408 1 -11.655871063785007 -9.83341029767809 8.27676463062869 0 0 0
351 1 -13.664776960422177 -8.606332597821615 9.208233493410322 0 0 0
452 1 -9.815495198200924 -10.941524681115377 7.282826535131537 0 0 0
406 1 -9.79255379902236 -10.243997718728195 9.887061318776873 0 0 0
395 1 -9.135501551791581 -8.718504390964732 7.707196306582482 0 0 0
405 1 -7.9183709997933285 -11.16624893597887 8.772461453467752 0 0 0
404 1 -7.232670540602464 -8.862869340647519 9.321130048688659 0 0 0
412 1 -3.4101008324295403 -11.37705831259748 7.199639969366579 0 0 0
403 1 -5.231198230194012 -10.176751181406917 8.292080534823825 0 0 0
411 1 -3.5037429928728674 -10.549085307971389 9.976006688590939 0 0 0
362 1 -0.732997538802616 -9.365420832055083 9.442243061214306 0 0 0
401 1 -2.5972805487687403 -9.12482535528731 7.740024757041869 0 0 0
398 1 -12.787095837505802 -7.425716543897754 7.137178923176645 0 0 0
350 1 -12.757392264150413 -6.492268753976979 9.895331902412835 0 0 0
349 1 -10.976046081271248 -7.607807066071963 8.815329980778088 0 0 0
393 1 -6.304505125062223 -7.797444423305169 7.2041163960867145 0 0 0
394 1 -8.288032039961703 -6.467980153694037 8.374126650383225 0 0 0
345 1 -6.446195279173101 -6.640915407671007 9.931655580461051 0 0 0
391 1 -3.6731991076524046 -6.629734488625892 6.9782818350683335 0 0 0
402 1 -4.585499524316713 -7.83352795638255 8.837630887391835 0 0 0
1244 1 -0.054562613568796436 -5.219041558145205 1.9143986414801049 0 0 0
400 1 -2.019980537703246 -6.976372887779962 8.53615651376219 0 0 0
339 1 -11.928423542295288 -5.279231266007825 7.972894666496931 0 0 0
340 1 -13.92020831164359 -4.139051796879745 9.011076246389134 0 0 0
234 1 -13.071796838402008 -2.9688782113462118 7.017557291013365 0 0 0
338 1 -11.260397603396639 -2.9353970926906303 8.61140204101602 0 0 0
348 1 -10.051026172917938 -5.340428162665885 9.42340828613602 0 0 0
337 1 -9.337739079116153 -4.02227014781081 7.424465877069345 0 0 0
336 1 -9.357438830631727 -3.0474059446055435 10.075455318287005 0 0 0
335 1 -7.420631054853635 -4.206614056574088 8.933286999211262 0 0 0
382 1 -6.623384782621546 -2.936084564026226 7.088505251812759 0 0 0
343 1 -3.6557355943964023 -5.6433899026474865 9.629283237219944 0 0 0
392 1 -5.477298045739769 -5.500898285965521 7.991788207089254 0 0 0
333 1 -4.854455308811339 -3.18053833720921 8.661694304881859 0 0 0
390 1 -2.8588825780416336 -4.39998295921276 7.646997031956399 0 0 0
1215 1 -0.27795171468764046 -3.3457326770904636 7.14927074533551 0 0 0
341 1 -1.045066601625372 -4.606420759002313 9.158200495806053 0 0 0
233 1 -12.356241866153916 -0.605117194480556 7.739129430382224 0 0 0
230 1 -13.19992050006048 -2.0844377575752713 9.821674425784504 0 0 0
229 1 -10.403330108603905 -0.7365763550640914 9.16953978912078 0 0 0
231 1 -8.475005142026507 -1.8209544063036773 8.173584209745812 0 0 0
334 1 -6.752913050325421 -1.8537677183966057 9.758504571472635 0 0 0
897 1 -5.867023076305911 -0.6126397402378316 7.824448909139662 0 0 0
741 1 -4.0040718947211555 -0.8487293076305917 9.27902748771902 0 0 0
312 1 -0.3325550361867542 -2.3046167548950667 9.790577829785935 0 0 0
332 1 -2.1761852752023607 -2.065189657749393 8.318327521828913 0 0 0
1310 1 -13.413601602345203 -12.540526529049554 12.09957200545469 1 0 0
417 1 -11.573439997203637 -13.555168876498517 10.941382642149819 0 0 0
415 1 -8.656053994737594 -12.531099135149669 10.671603105784001 0 0 0
377 1 -8.691992634187425 -11.593989706750712 13.20574237778343 0 0 0
368 1 -9.615839948437046 -13.852670401553883 12.488911037956143 0 0 0
359 1 -10.660322293183967 -11.532984134011583 11.72640331581293 0 0 0
413 1 -6.008486004204732 -11.431735256486517 10.224833372280102 0 0 0
422 1 -6.9528780409700826 -12.875419879711966 12.144677997809872 0 0 0
376 1 -4.989805964514495 -14.003503626379317 11.206413078930414 0 0 0
364 1 -4.284245360696593 -11.832833763896168 11.874764589833429 0 0 0
71 1 -2.394095014793674 -11.977226641852116 13.532487776100165 0 0 -1
1226 1 -0.39310875820230784 -13.203244058124014 12.601404360919286 0 0 0
378 1 -2.345810545061479 -13.036080644623205 10.818131012491762 0 0 0
360 1 -11.683269333432502 -8.982111887858538 10.727443464042896 0 0 0
144 1 -12.510926960908874 -10.415793141701412 12.758141272616545 0 0 -1
358 1 -9.912889690303686 -9.203166827905882 12.31136349026698 0 0 0
357 1 -7.888108338353611 -10.267559675744556 11.338274217163782 0 0 0
366 1 -6.040087572742637 -10.593325577245384 13.033348676254068 0 0 0
355 1 -5.331682659487507 -9.19237614990367 10.921776720715076 0 0 0