LAMMPS data file via write_data, version 29 Sep 2021, timestep = 0

1861 atoms
3 atom types

-14.354069219492404 14.354069219492404 xlo xhi
-13.336311051518889 13.336311051518889 ylo yhi
-14.318960304386072 14.318960304386072 zlo zhi

Masses

1 55.847
2 1.008
3 1.008

Atoms # atomic

60 1 -12.286549654391775 -10.731473044458632 -12.379655181418258 0 0 0
1261 1 -13.957974907421283 -12.338461154147215 -13.905168867115078 1 0 1
178 1 -13.5979206017505 -12.805179199417235 -11.491686901439337 0 0 0
177 1 -11.376034402916238 -12.58418288816586 -13.709441457831266 0 0 0
169 1 -9.747373424673373 -11.007276407761124 -12.12816485989535 0 0 0
551 1 -9.085092264261423 -12.996225522515283 -13.27388817402191 0 1 0
172 1 -7.465720548830342 -11.574837459407028 -11.611820626626956 0 0 0
174 1 -7.798535347558305 -11.109265871046167 -14.079553998129777 0 0 0
323 1 -5.467109556392733 -11.424355007364358 -13.681150336993687 0 0 1
341 1 -3.0007410628768962 -11.916566558755884 -13.255591786980007 0 0 1
164 1 -0.6244595252558085 -12.366080779781603 -12.792840853236036 0 0 0
150 1 -1.3481043441064067 -10.380897292966255 -11.480566478467253 0 0 0
61 1 -13.371275876321363 -8.303996540354714 -13.560248511977328 0 0 0
55 1 -11.666325218140909 -6.782623316134775 -11.908450260577942 0 0 0
54 1 -11.010657481538994 -8.768053956246504 -13.151842274125038 0 0 0
59 1 -9.632165078238742 -6.828956613802391 -13.84077255959873 0 0 0
58 1 -8.61051391183955 -9.004139557463278 -12.825785794518321 0 0 0
48 1 -7.155821499862355 -7.081560826407248 -13.40981983433358 0 0 0
160 1 -6.182663676752798 -9.439546451591417 -12.363151280167877 0 0 0
163 1 -3.6569328705636384 -9.977578803599815 -11.943589916760466 0 0 0
51 1 -4.80227445774538 -7.4548451662854545 -13.005579486639864 0 0 0
165 1 -1.5738737782296752 -9.908707725861273 -13.851692001977836 0 0 0
152 1 -2.2911486444716704 -7.900977505748855 -12.65424032351147 0 0 0
56 1 -12.808871762327936 -4.339234361058761 -12.751948433435873 0 0 0
112 1 -13.997740399984094 -6.369057715253711 -12.018606740527833 0 0 0
62 1 -3.980163051313685 -1.3801276816121781 -0.03913671766541604 0 0 0
43 1 -10.43458078234503 -4.814550952565982 -12.46586237751434 0 0 0
49 1 -7.973003145882799 -5.227622686100474 -12.084517376407709 0 0 0
52 1 -5.998556297556291 -5.191833798326513 -14.210271042128888 0 0 0
30 1 -5.593560134096482 -5.501187965187239 -11.778816118747997 0 0 0
36 1 -3.4639798023147037 -5.651200934899508 -13.856218812570916 0 0 0
37 1 -4.237853981603029 -3.6521412236050157 -12.419035432966357 0 0 0
35 1 -3.0909075889055586 -6.00815169714573 -11.36606142486967 0 0 0
39 1 -1.0280941178795118 -5.86410214713905 -13.373376833390193 0 0 0
20 1 -1.6906260139620244 -3.956156296393466 -11.990370275257948 0 0 0
113 1 -14.144933314261106 -10.594724038038294 -10.245740613013464 0 0 0
46 1 -11.887738636665581 -0.6222926281246277 -11.981440714868642 0 0 0
990 1 -13.68316464640931 -2.052965630404522 -14.041724857772126 1 0 0
45 1 -11.45886999439659 -2.505054984653997 -13.47986523943893 0 0 0
50 1 -9.087800167502925 -2.8281155686489576 -13.138454988227338 0 0 0
28 1 -9.583409045386365 -0.9739937594261896 -11.467604796379147 0 0 0
101 1 -14.221735992302213 -4.883623151482473 -8.249576727674087 0 0 0
32 1 -6.612991021084059 -3.217362324814422 -12.790620514707234 0 0 0
38 1 -7.6012644859621235 -0.8875176155887434 -13.76558685019432 0 0 0
396 1 -5.1451726589068 -1.294974030033293 -13.437064172595198 0 0 1
22 1 -2.8613091600768072 -1.6773494358622294 -12.968245698625756 0 0 0
946 1 -0.4812384475068878 -1.954490097240237 -12.694048692592542 0 0 0
179 1 -13.209586102034969 -13.142493303188825 -9.193860925206735 0 0 0
180 1 -11.723759329565022 -10.990942569651361 -9.991502374771926 0 0 0
408 1 -12.122882793097219 -6.346571567091279 -14.267450451007589 0 0 1
175 1 -11.107324778615888 -13.107158174672247 -11.269664006245211 0 0 0
168 1 -9.344176863148428 -11.481986252976231 -9.669574068240781 0 0 0
154 1 -7.015232735739728 -11.831526686198075 -9.242168216451589 0 0 0
158 1 -5.059025312380513 -11.848328512128907 -11.16359235316952 0 0 0
146 1 -3.409047081558155 -10.402412624346173 -9.488782244483474 0 0 0
157 1 -4.536767742259071 -12.248859172962675 -8.827649420354089 0 0 0
161 1 -2.562159346004032 -12.299575276536748 -10.844615105702632 0 0 0
149 1 -0.931371451235961 -10.820226346416261 -9.123589196003294 0 0 0
1115 1 -0.1680645658778488 -12.77197365982988 -10.471709823079756 0 0 0
110 1 -13.01589324150492 -8.722391528751256 -11.083177724618665 0 0 0
111 1 -13.670202033100658 -6.938601392004292 -9.499827558753093 0 0 0
109 1 -12.542805822063066 -9.191282027374815 -8.663381188798347 0 0 0
41 1 -9.219252820028153 -7.139138176264532 -11.323398313130296 0 0 0
103 1 -11.231955146960246 -7.255838937505205 -9.287998769260572 0 0 0
53 1 -10.612193936418425 -9.025342659888336 -10.711072717087797 0 0 0
40 1 -8.785341503334799 -7.435533133911638 -8.941279311049794 0 0 0
47 1 -6.804141291868837 -7.466371017613828 -10.973555136800845 0 0 0
156 1 -8.07420581604702 -9.419217394962013 -10.220122532874226 0 0 0
159 1 -5.725510027532852 -9.86953254881316 -9.90790331335317 0 0 0
142 1 -6.441957322497678 -7.932779668136508 -8.52562121905147 0 0 0
148 1 -4.415989988625899 -7.971143290837562 -10.772690099681995 0 0 0
151 1 -2.1149542544802404 -8.355719959116037 -10.26252486555645 0 0 0
1095 1 -0.21943409572522654 -6.867609807477365 -8.537691373361396 0 0 0
105 1 -12.360075652723136 -4.927469905587749 -10.262225549822642 0 0 0
42 1 -9.964785071175626 -5.239147738817218 -9.960294278918468 0 0 0
24 1 -7.487393966515363 -5.44791741932562 -9.578881781776484 0 0 0
31 1 -6.204037795618877 -3.535954234571122 -10.372387320707048 0 0 0
29 1 -5.082397212097314 -6.039751771239418 -9.314653177062706 0 0 0
16 1 -3.793476708140515 -4.054693544961147 -10.048198068863979 0 0 0
135 1 -2.591796192543807 -6.481954238146789 -8.883551742688464 0 0 0
136 1 -0.6641792495201013 -6.465170480383554 -10.971860254911 0 0 0
19 1 -1.422479527216753 -4.456778909450001 -9.600266931406981 0 0 0
107 1 -13.384225038952561 -2.4244672029059426 -11.32310925651457 0 0 0
108 1 -13.975819959380683 -0.5102974475968409 -9.948457786900669 0 0 0
106 1 -12.977152195868573 -2.9539706419046468 -8.838857645177551 0 0 0
97 1 -11.715682068461895 -1.0649621764063628 -9.539385639382544 0 0 0
44 1 -11.111221622913046 -2.9127229064142206 -10.973965971127503 0 0 0
27 1 -9.268276306188941 -1.3167143982874023 -9.187819284677154 0 0 0
33 1 -7.244510356899429 -1.2703615403221562 -11.34233802460651 0 0 0
26 1 -8.599327439397266 -3.141891819620641 -10.676928007371517 0 0 0
14 1 -6.847840433120502 -1.6127061119599446 -8.913731642170053 0 0 0
18 1 -4.875130775307479 -1.6683404553219798 -11.025767408732822 0 0 0
534 1 -3.1680382394535513 -0.09042635216720285 -9.391812058168398 0 0 0
21 1 -2.4758414109360345 -2.047363660918302 -10.688940902301876 0 0 0
10 1 -0.6952934054827882 -0.5339637016561749 -8.960764215952874 0 0 0
544 1 -1.0996514958892547 -0.184766357646879 -11.390696426815785 0 0 0
184 1 -13.783211231490045 -11.119497634139744 -7.7863760588691955 0 0 0
181 1 -11.391350244358177 -11.45900714653541 -7.550580269209722 0 0 0
190 1 -8.979325407211277 -11.95312156627511 -7.1284703139218895 0 0 0
153 1 -6.650969779974514 -12.171876312414012 -6.851695856684397 0 0 0
155 1 -7.748890292829753 -9.908780179108897 -7.735388913133224 0 0 0
138 1 -4.2671723692446015 -12.793756339088034 -6.4096478517872235 0 0 0
140 1 -5.240868347876132 -10.334594138793648 -7.378705700310372 0 0 0
145 1 -2.886843739542215 -10.732762289683361 -7.19699010793299 0 0 0
144 1 -2.0862159340322 -12.731446555385347 -8.48772553844356 0 0 0
143 1 -1.9271144689856765 -13.165939615427472 -6.104006702593997 0 0 0
131 1 -0.5552202821996204 -11.187587066918397 -6.720880551761555 0 0 0
192 1 -12.194647664937452 -9.54731666503385 -6.2266679732486345 0 0 0
99 1 -13.17435374994615 -7.313070162816454 -7.1775009390783 0 0 0
189 1 -9.709867761361597 -9.866011588195578 -5.752843951583069 0 0 0
188 1 -10.07136991144144 -9.471394383275117 -8.336461529262133 0 0 0
102 1 -10.738531165058541 -7.554376503872823 -6.874257495592659 0 0 0
200 1 -8.442201527798227 -7.879430737135568 -6.563307557659538 0 0 0
141 1 -6.038259849124248 -8.190186525339508 -6.170953325792855 0 0 0
147 1 -4.174414009319536 -8.310978353878193 -8.168346176432095 0 0 0
128 1 -3.514146529146421 -8.690434584970697 -5.710250659766617 0 0 0
133 1 -1.6484587099334416 -8.722886661180942 -7.918996347669788 0 0 0
134 1 -2.39024934793472 -6.79575766765353 -6.500808369854918 0 0 0
104 1 -11.955532374877789 -5.266771212385205 -7.836160105154748 0 0 0
1 1 -2.0232737170136232 -1.384194680600121 -2.0248111201107406 0 0 0
93 1 -9.466451667727245 -5.622075991349528 -7.646216099408684 0 0 0
94 1 -10.016294490379039 -3.8449199236616263 -6.179549367202911 0 0 0
25 1 -8.06126268227305 -3.634751058924806 -8.247855352048472 0 0 0
23 1 -7.073514411624238 -5.921233107957912 -7.19360967996178 0 0 0
80 1 -7.715501081133008 -3.962236492238805 -5.760190181293806 0 0 0
12 1 -5.714193281755971 -3.904009778105088 -7.970736651168707 0 0 0
130 1 -4.666492828417772 -6.307253808573189 -6.81624611413556 0 0 0
15 1 -3.354939692863393 -4.363099614470958 -7.716312468952094 0 0 0
123 1 -0.9674431152647625 -4.947863341768462 -7.195334946616149 0 0 0
89 1 -12.51079400885752 -3.394382267722417 -6.3727062440799305 0 0 0
91 1 -13.682507510742907 -0.9652166599926879 -7.525942188264748 0 0 0
95 1 -10.520439728979634 -3.1908540402539582 -8.566393609099958 0 0 0
96 1 -11.274442310045224 -1.442937583861152 -7.028033631506299 0 0 0
82 1 -8.83599684710422 -1.7528520330415365 -6.744886450186622 0 0 0
13 1 -6.384743182179747 -2.015809464910655 -6.573576697652416 0 0 0
17 1 -4.483934492103199 -1.9780505256658554 -8.722373185480382 0 0 0
6 1 -5.048726380988006 -0.060514933638851076 -7.213600211390036 0 0 0
4 1 -3.9896766689560668 -2.3619272827547864 -6.280758118561966 0 0 0
926 1 -0.15317791003703363 -1.1732362872689972 -6.610781647445753 0 0 0
9 1 -2.5922565073619683 -0.3923055256145922 -6.96203745578486 0 0 0
8 1 -2.0175975496312493 -2.542986241772468 -8.282319216239308 0 0 0
185 1 -13.493820793131228 -11.607155094702629 -5.382513228833389 0 0 0
198 1 -13.073643742007722 -11.968546016538268 -3.075058193000027 0 0 0
194 1 -11.000708399081189 -11.88468449981524 -5.040054583823286 0 0 0
208 1 -9.401837912195685 -10.354148514369772 -3.4214984291222645 0 0 0
191 1 -8.670796769190677 -12.294189146636793 -4.68569320867296 0 0 0
202 1 -7.181396867773931 -10.350205179089718 -5.421993053065298 0 0 0
204 1 -6.369669169996691 -12.636608983158824 -4.380268987480871 0 0 0
203 1 -7.018123344044753 -10.703250388460335 -3.1988869370307533 0 0 0
137 1 -3.9050121965292934 -12.981457411056187 -4.004222424949793 0 0 0
139 1 -4.797753955516077 -10.651124519331093 -5.04806412079037 0 0 0
126 1 -2.580261301886967 -11.20688550229102 -4.701888601867699 0 0 0
1089 1 -0.30570403066773366 -11.601808737655453 -4.333643461554601 0 0 0
193 1 -11.7849460205544 -9.872908965368419 -3.7922334688387433 0 0 0
197 1 -14.23955831729306 -9.542245831107218 -4.077363872295839 0 0 0
98 1 -12.815955820610982 -7.675631278531262 -4.735081313451385 0 0 0
206 1 -10.59680502862963 -7.945025696915394 -4.476561861908209 0 0 0
201 1 -8.114627088766326 -8.335617652851635 -4.20132655427857 0 0 0
217 1 -5.671145861440433 -8.79582427301586 -3.7924525249101766 0 0 0
127 1 -3.221858630123018 -9.21754518839182 -3.357479184564168 0 0 0
129 1 -4.214556080280287 -6.710152109839272 -4.4338211868829305 0 0 0
132 1 -1.3277523178717168 -9.32937861249091 -5.4925057349818704 0 0 0
119 1 -1.8317332953869165 -7.177651340991614 -4.109247948641293 0 0 0
117 1 -0.7870696350720259 -9.62762690962234 -3.063215312787465 0 0 0
100 1 -13.908694722678536 -5.336544962795661 -5.754804678650794 0 0 0
88 1 -12.198288260465599 -3.773135225840937 -3.8275748733662525 0 0 0
1140 1 -13.398975044615309 -5.80400369002189 -3.241839170607271 1 0 0
87 1 -11.571518151080802 -5.702414840779779 -5.188306270006114 0 0 0
92 1 -9.071273557023453 -5.962593285428052 -5.216620014401379 0 0 0
76 1 -9.687315320328498 -4.120766360931567 -3.6658401432422245 0 0 0
86 1 -10.915329804587682 -6.167832460354705 -2.7920077980736995 0 0 0
215 1 -6.569284974329625 -6.441803815189575 -4.811457294065008 0 0 0
79 1 -7.270758026541765 -4.399396196824947 -3.483900071408648 0 0 0
11 1 -5.257323265206132 -4.429854148822873 -5.653273518876244 0 0 0
227 1 -5.0145168411357925 -4.755614001243213 -3.232794359680156 0 0 0
121 1 -2.889912700846933 -4.8164247845781265 -5.223260732917881 0 0 0
122 1 -0.5925017966342931 -5.279983585224475 -4.8374896224710255 0 0 0
90 1 -13.18039039704911 -1.4643924233698602 -4.950648113923789 0 0 0
78 1 -10.759023494792466 -1.9039173740230062 -4.545286875307619 0 0 0
67 1 -9.178565534908774 -0.36999007701516184 -2.8018090400476083 0 0 0
71 1 -7.007190690026455 -0.19503198832541102 -5.16408639663997 0 0 0
81 1 -8.391739900458642 -2.024261317287168 -4.476133222207917 0 0 0
69 1 -5.894050119313839 -2.555141296416176 -4.218984041889891 0 0 0
3 1 -3.5362330943595666 -2.909870449047858 -3.9090746585924947 0 0 0
5 1 -4.664269399261503 -0.5435391423758311 -4.923385408378392 0 0 0
7 1 -1.5992462923380177 -2.901442459645734 -5.865731439399772 0 0 0
115 1 -1.3199711162035843 -3.248768281585278 -3.3351042667357174 0 0 0
2 1 -2.163038760835782 -1.0662209258454087 -4.645131609664777 0 0 0
852 1 -12.834389401319065 -12.303810178347444 -0.6782696529036976 0 1 0
214 1 -13.673682900459093 -10.05576619819342 -1.4957081148529152 0 0 0
213 1 -11.254906861251138 -10.469674083090716 -1.4104622267365148 0 0 0
602 1 -10.425203967338156 -12.686783452358274 -0.26547026845838495 0 1 0
195 1 -10.68004603522546 -12.330844747672492 -2.760078758497274 0 0 0
209 1 -8.959840750172775 -10.707539414159445 -1.141152104493381 0 0 0
205 1 -5.905094948622429 -13.010109275624313 -1.9230742199189823 0 0 0
618 1 -8.272078716264971 -12.757138566912765 -2.3130620166993374 0 1 0
210 1 -6.666954893893627 -11.254713772620864 -0.6398825355853379 0 0 0
219 1 -4.572469949943557 -11.133062645705664 -2.728399336004218 0 0 0
482 1 -4.378309451669093 -11.567042980113186 -0.29420341089414137 0 1 0
221 1 -2.274935117879661 -11.604665428658796 -2.296957647164483 0 0 0
428 1 -0.4231795010298587 -9.944002615247538 -0.6374230801237033 0 0 0
211 1 -12.348692841644144 -8.194884735228381 -2.2487271731292164 0 0 0
207 1 -9.98219647192243 -8.434249900067467 -2.027124027695649 0 0 0
993 1 -0.1608081451257526 -5.748286817245482 -2.4344749100421357 0 0 0
223 1 -8.986888406726148 -6.822153629057327 -0.4282232452144612 0 0 0
224 1 -7.689206708962837 -8.626627733909192 -1.9226849619025739 0 0 0
216 1 -6.237346999272118 -6.832962604975956 -2.5652315399626744 0 0 0
218 1 -5.352779866688486 -9.178425427143473 -1.3384664783007238 0 0 0
229 1 -3.955097966936865 -7.279626235538797 -2.0381051379770128 0 0 0
230 1 -2.9275023599612897 -9.59702901564715 -0.9534653787801979 0 0 0
118 1 -1.5185689505531617 -7.723770530578922 -1.7025518360494125 0 0 0
83 1 -12.825669509252347 -6.316146678047788 -0.5719605856230991 0 0 0
1125 1 -14.076804782406263 -3.8191713385565897 -1.6273764062708604 1 0 0
72 1 -11.728053368297246 -4.277630115716315 -1.380575269766382 0 0 0
222 1 -8.561017974878474 -6.408612418141702 -2.8139794894001753 0 0 0
75 1 -9.326295008520894 -4.5497566164963175 -1.0056557363256466 0 0 0
231 1 -7.05781715753025 -4.880407098933853 -1.1344854713594312 0 0 0
228 1 -4.560506163694928 -5.169276317183737 -0.9189228820152842 0 0 0
68 1 -5.715233678365575 -2.970134696706946 -1.8228310112816164 0 0 0
120 1 -2.5685660931529757 -5.25431825974621 -2.8072272628035595 0 0 0
114 1 -0.8420867182426246 -3.698509644101227 -1.0180162602985927 0 0 0
233 1 -2.19527801295418 -5.557073621187965 -0.35837609603237475 0 0 0
74 1 -12.814583238763806 -1.9761578883459041 -2.5072523343186806 0 0 0
64 1 -11.139257303785033 -0.29006188588970794 -0.624808213403977 0 0 0
77 1 -10.463696940897023 -2.294516571764536 -2.048031591135425 0 0 0
452 1 -8.720920054585523 -0.7259317613234941 -0.4205379977314294 0 0 0
70 1 -6.684716989085982 -0.643542963913351 -2.830525699256466 0 0 0
66 1 -6.254227443886293 -0.9537171302783403 -0.5352258556384424 0 0 0
65 1 -8.063803598825444 -2.626863603488996 -2.1747027494986586 0 0 0
63 1 -4.297277773267968 -1.0484852703122218 -2.5100676801249584 0 0 0
232 1 -3.3120951179095393 -3.3305899522696354 -1.582974594812102 0 0 0
430 1 -6.231723708262255 -7.108076941178862 -0.19571757233933695 0 0 0
34 1 -10.006202549289362 -0.47927671609842903 -14.196340744046317 0 0 0
1452 1 -13.340530618018612 -0.060185264795913795 -1.0670686378831284 1 0 0
936 1 -0.052438098675390066 -2.473627160567119 -10.232262573665484 0 0 0
1285 1 -12.55295757558024 -12.513750270023921 1.7521915686888452 1 0 0
212 1 -11.98274130699518 -10.224927418484361 0.8121541652742827 0 0 0
250 1 -13.814791263694035 -10.193520183625088 2.578784618617812 0 0 0
344 1 -9.156072775293595 -10.921438614816484 1.2940574575531105 0 0 0
248 1 -10.29811235971403 -13.022795710465857 2.1941574870919514 0 0 0
432 1 -6.59921357483912 -11.339659594556412 1.7985658388276544 0 0 0
394 1 -5.642431123416474 -0.9158599373777108 12.747250001935514 0 0 0
431 1 -4.166125672668745 -11.788449983807547 2.141247227475562 0 0 0
894 1 -1.5750353469497878 -12.332481742378674 2.3921599571741563 0 1 0
890 1 -0.25507756821791716 -10.294392454152602 1.7938002895943992 0 1 0
162 1 -4.139223481926754 -9.450936685425459 14.252985684789872 0 0 -1
455 1 -12.372518919853455 -7.756184914475421 1.8864402722603177 0 0 0
362 1 -2.118744673252518 -3.5956666296554403 14.220739911730659 0 0 0
226 1 -10.560384691202621 -8.376043911228773 0.24597160318772282 0 0 0
244 1 -9.931468534236494 -8.94872719351698 2.584057331856849 0 0 0
330 1 -8.438894881134441 -7.104188031872774 1.9311562747109452 0 0 0
225 1 -7.686541076787922 -9.101120160908978 0.5223580953253251 0 0 0
345 1 -5.99357534940661 -7.446747246234907 2.2573926938699582 0 0 0
220 1 -5.19381404613441 -9.464704857816768 1.1000878051640477 0 0 0
421 1 -3.8157843319154505 -7.542681892186112 0.398498030916727 0 0 0
309 1 -3.527787386632763 -7.922002442750688 2.6557655392308543 0 0 0
429 1 -2.8459835225288703 -9.77176819324798 1.3508071304889988 0 0 0
419 1 -1.3165892152122165 -7.9830654499748865 0.7652601007800452 0 0 0
1230 1 -13.432874304697892 -4.420729189159307 0.9839227906515831 1 0 0
451 1 -11.84379218677387 -3.1048822866523853 2.6719685757486555 0 0 0
440 1 -11.019121259914275 -5.652488796013153 1.1415138972156615 0 0 0
313 1 -7.405272190706343 -5.064565458685047 1.1121526356223441 0 0 0
424 1 -4.593916069569669 -5.636551381450391 1.5219319137822058 0 0 0
417 1 -3.070662896270809 -3.6480191703214597 0.9391568105282406 0 0 0
305 1 -5.49253839498077 -3.3065221382249472 0.572714799673351 0 0 0
304 1 -5.2257234764025835 -3.5204456336408665 2.9285751172627545 0 0 0
420 1 -2.033063679441142 -5.960914043577497 2.0188062154935 0 0 0
416 1 -0.6422208810740777 -3.9981705530629856 1.260876743059125 0 0 0
453 1 -12.900812422685425 -0.4119266627955227 1.4802417576554046 0 0 0
735 1 -4.090724865778798 -0.03432263639512456 5.972349171854551 0 0 0
458 1 -13.957444645554935 -8.360267025910598 0.20427393354799683 0 0 0
439 1 -9.7508886948474 -3.1268519810783264 1.3292594706791299 0 0 0
442 1 -10.605290664339108 -0.7788419245716103 1.8413544812515799 0 0 0
450 1 -7.592715715298054 -3.1782418999070874 2.387794378394341 0 0 0
761 1 -8.212218165282799 -1.030337260568018 2.030413581520433 0 0 0
460 1 -5.891663164270243 -1.1784732753681695 1.9042259580371468 0 0 0
461 1 -7.629155513641141 -2.8427972721548382 0.05692324144003713 0 0 0
292 1 -3.6219222449152415 -1.7993682841875884 2.3111059353624395 0 0 0
1622 1 -1.551148826016954 -1.5799549250481988 0.278224389474083 0 0 0
414 1 -1.264948197072659 -2.1641984063211375 2.641447590260343 0 0 0
294 1 -13.35257479481732 -10.86631285993751 5.19515856925568 0 0 0
842 1 -12.385131390944727 -13.02354690917002 4.146834556837563 0 1 0
331 1 -11.2385146790376 -10.908807299549698 3.2585940789998933 0 0 0
287 1 -10.868804458758976 -11.394519178631214 5.765247446918016 0 0 0
1245 1 -14.272804621919187 -2.356787085358759 2.2153379600418024 1 0 0
246 1 -8.709641543154714 -11.3433545153056 3.6458811503655983 0 0 0
328 1 -6.330995099334048 -11.753878875046805 4.1664336596844915 0 0 0
327 1 -3.685376452014319 -12.204427675250386 4.49355236212133 0 0 0
325 1 -1.2368532886012336 -12.679464732591974 4.813258335623589 0 0 0
427 1 -2.388869046763178 -10.340496158016311 3.7237970237337503 0 0 0
314 1 -11.866706814368971 -8.805898155769267 4.594355842610186 0 0 0
371 1 -12.630628567554211 -6.746089336880882 5.7544750822280175 0 0 0
765 1 -12.795615606394156 -0.18643734522675182 7.769374814930805 0 0 0
245 1 -9.499776910518868 -9.512823272294593 5.039180981597584 0 0 0
454 1 -10.650478791037665 -6.750757804419696 3.6582947702624597 0 0 0
251 1 -7.377429780463424 -9.414460509977147 2.918590928138725 0 0 0
261 1 -7.094823260893401 -9.68251696108716 5.30639769360536 0 0 0
259 1 -8.152287136167235 -7.434082208158149 4.284037735016243 0 0 0
312 1 -5.624044245855828 -7.800092772442214 4.599703711567164 0 0 0
311 1 -4.86768301471435 -9.863179994113992 3.420937387393808 0 0 0
326 1 -3.160425681493791 -8.340648772173488 5.109036063463643 0 0 0
426 1 -0.969336512012589 -8.385156246171356 3.078139310420104 0 0 0
307 1 -0.5994696176278786 -8.82042772002012 5.62352006160569 0 0 0
438 1 -12.957451762441178 -5.528926036510266 3.4582134075555704 0 0 0
443 1 -11.226795641037956 -4.729018409010198 5.12665943423279 0 0 0
462 1 -9.257808755677104 -4.811524683006176 3.1313277115254525 0 0 0
346 1 -8.783135418708234 -5.4706127481826865 5.526124143139031 0 0 0
270 1 -6.79904712230056 -5.52680957056669 3.5504295468609772 0 0 0
271 1 -4.922034362324817 -3.9317858477931384 5.2479553410635855 0 0 0
303 1 -4.319588753137232 -5.907214601657939 3.942736360979543 0 0 0
290 1 -2.8439982144158957 -4.09812655972093 3.3187831636129577 0 0 0
415 1 -0.33171074568714154 -4.649617579969458 3.665037663079465 0 0 0
301 1 -1.879482491850684 -6.352054899036376 4.329227804759155 0 0 0
1243 1 -13.754771906288441 -3.305170874252786 4.668510308527013 1 0 0
441 1 -12.60912247649939 -0.9797701125383149 4.050376406650935 0 0 0
444 1 -9.85971439884117 -2.1825427812390323 4.181002766983861 0 0 0
269 1 -7.468197685003158 -3.41247302062364 4.90914912098736 0 0 0
278 1 -6.007710861801559 -1.4314510611765634 4.229963443704007 0 0 0
280 1 -3.4722948903428072 -1.9771540447690317 4.536533146871138 0 0 0
291 1 -1.918077974356006 -0.23238723011228934 4.00858451314142 0 0 0
289 1 -0.8913063385456113 -2.4575386738168135 5.152897145128394 0 0 0
1238 1 -12.82982039505054 -11.282749995681034 7.533664664511891 1 0 0
355 1 -14.28300388958426 -13.086947787101499 6.155923505219574 0 0 0
243 1 -10.366208602055023 -11.757337977409517 8.135711646653393 0 0 0
252 1 -8.256270487563405 -11.845094744952688 6.103663044447261 0 0 0
316 1 -6.716768398216799 -10.063102602419656 7.714707048751562 0 0 0
247 1 -7.850375520404335 -12.107099051248357 8.531945419714171 0 0 0
342 1 -5.8651999956551855 -12.21136917626268 6.612944628223863 0 0 0
253 1 -4.535947251455772 -10.219958526078628 5.758129237728161 0 0 0
254 1 -3.4258588865884096 -12.669382916214916 6.8537697055980455 0 0 0
263 1 -4.233398621478376 -10.700354863316974 8.135387757557963 0 0 0
256 1 -0.9442669278995179 -13.066919671321454 7.1679814108718976 0 0 0
329 1 -2.075916303669654 -10.63700194352637 6.231559346687712 0 0 0
324 1 -1.6801018075198204 -11.138838175284977 8.596769030493801 0 0 0
1270 1 -12.244756771202699 -7.27067666649046 8.203195513725975 1 0 0
1237 1 -14.133258872628389 -8.803488915744042 6.43519773832106 1 0 0
295 1 -11.502046112805285 -9.245290550593905 6.913676727096723 0 0 0
296 1 -9.078247620903046 -9.845131180117933 7.40056901029744 0 0 0
332 1 -10.047264848365359 -7.376996164089805 6.041059678894749 0 0 0
260 1 -7.832883285110726 -7.900293164700077 6.603859124226345 0 0 0
336 1 -5.419917855645753 -8.108811490162143 6.999764649946043 0 0 0
265 1 -2.8734678655414942 -8.696980216001627 7.405031861845055 0 0 0
306 1 -0.33773735867687904 -9.269663754187384 7.927221353743898 0 0 0
308 1 -1.3221579756848154 -6.8502578618727075 6.71939650184027 0 0 0
446 1 -13.363344504343749 -4.5678259937014705 7.199310036388878 0 0 0
379 1 -10.915024178130722 -5.438665252903411 7.364951805399885 0 0 0
333 1 -8.352038139361284 -5.857762786086646 7.895451017212741 0 0 0
347 1 -6.333863596818002 -5.764641350610925 5.94768170148925 0 0 0
449 1 -7.174412433261852 -3.831565674768054 7.163872211747462 0 0 0
334 1 -6.02927112759051 -6.258612115796999 8.381914240779972 0 0 0
310 1 -3.8502058133182206 -6.365806840799371 6.355897011227389 0 0 0
262 1 -4.576951029658453 -4.335944760383125 7.616056074180852 0 0 0
302 1 -2.4103585981408955 -4.322904818818623 5.665195724125381 0 0 0
273 1 -2.256747983182816 -4.943910956494811 7.945178103991092 0 0 0
570 1 -1.8883228052357222 -11.85364849117137 0.17901494461045075 0 1 0
1248 1 -14.065097687414113 -2.3729248022916494 8.235711016390349 1 0 0
448 1 -12.005499828943739 -2.365547845333319 6.271467691489304 0 0 0
386 1 -9.483012493520008 -3.384639331953963 6.5973455554866245 0 0 0
387 1 -10.26111908145383 -1.4231229947787476 7.971933639745982 0 0 0
762 1 -8.340391629601388 -1.2318270097504556 6.03822436508648 0 0 0
388 1 -7.958228975548266 -1.789576804536603 8.450830987914726 0 0 0
356 1 -5.638517475733979 -1.969774651758211 6.640172779216689 0 0 0
272 1 -3.215056904274171 -2.3822018624144654 6.880026268661064 0 0 0
357 1 -3.795808400632014 -0.5572675515769063 8.352249184265292 0 0 0
234 1 -3.17093034579052 -1.4088732157131876 13.256144802231463 0 0 0
282 1 -0.62973961071941 -2.8348038380256106 7.407890094792661 0 0 0
279 1 -1.7061248075708608 -0.4768944561683135 6.303215310143807 0 0 0
1302 1 -12.473297943427285 -11.795307481126882 10.067748242667369 1 0 0
790 1 -9.910056323601633 -12.150451320951582 10.527779153785625 0 1 0
373 1 -8.727698871048752 -10.116549804810614 9.633975584085297 0 0 0
297 1 -6.128057148714502 -10.587704519111295 10.0833564145618 0 0 0
299 1 -7.505287914981565 -12.570917286563368 10.880493902360103 0 0 0
318 1 -5.385717443702619 -12.590190484450195 8.992156452129722 0 0 0
255 1 -3.730567000390158 -11.125522292986886 10.546977897173159 0 0 0
320 1 -5.075074305004865 -12.97102675563278 11.345548101064148 0 0 0
834 1 -3.0419712004619477 -13.041965365211379 9.280881740253923 0 1 0
258 1 -1.3629078865636686 -11.493840845341571 11.02954605557458 0 0 0
1259 1 -13.518528449383341 -9.390484956054408 8.97524080975762 1 0 0
366 1 -11.722610445442163 -7.814343250062976 10.694783104967668 0 0 0
874 1 -8.112426492376605 -13.109113325693764 0.05605582088435135 0 1 0
367 1 -13.035787090500147 -9.826353708742385 11.377057022301654 0 0 0
315 1 -9.816425863924096 -7.816558214442571 8.545384514489365 0 0 0
365 1 -11.147219601346658 -9.80326889676968 9.361880541143718 0 0 0
383 1 -9.380418452855919 -8.2889879583064 10.966876970435829 0 0 0
381 1 -7.353854255978689 -8.204010367679171 9.052485392346044 0 0 0
317 1 -4.797069029373663 -8.714137756462847 9.402303598550299 0 0 0
352 1 -3.11972354937933 -7.014850058305537 11.169533760762837 0 0 0
264 1 -3.52714720887705 -6.7382180946103905 8.83295906081319 0 0 0
337 1 -5.524032014133688 -6.7190660470402195 10.75455571961914 0 0 0
257 1 -2.473738592152424 -9.08579049498463 9.748199147596916 0 0 0
275 1 -1.0563451825193155 -7.052669010959621 9.103632092135255 0 0 0
372 1 -13.08066199428432 -5.167526379670258 9.48623692431241 0 0 0
1276 1 -13.690896917292049 -3.1889839195548166 10.76750157448579 1 0 0
405 1 -11.204859895270594 -3.6683765810329927 11.166545099813375 0 0 0
375 1 -10.555173022005286 -5.790018594683727 9.838671316843504 0 0 0
380 1 -9.20003890844989 -3.922575995408616 9.033233813652428 0 0 0
335 1 -8.116780175547504 -6.2968533028787785 10.375130579706658 0 0 0
348 1 -6.744457195859885 -4.306985368960225 9.659531027346725 0 0 0
350 1 -4.273410536651705 -4.696859089699085 10.037722198306545 0 0 0
274 1 -1.8067666746149573 -5.161335532778473 10.56117913147091 0 0 0
447 1 -11.592097674085762 -3.410310487291781 8.76524158253631 0 0 0
434 1 -12.358604421179907 -1.2757354879271414 9.955576399117541 0 0 0
410 1 -9.932286764930344 -1.8833573613565928 10.410169938724033 0 0 0
411 1 -7.561373375095965 -2.32368720424763 10.873372594546078 0 0 0
393 1 -6.139276058902688 -0.4285302368330175 10.340485890986423 0 0 0
349 1 -5.426288354408982 -2.3419671356958727 8.962219491161607 0 0 0
358 1 -3.568079124307989 -0.9040248380447089 10.75313197225165 0 0 0
395 1 -5.018834490265322 -2.884646308753494 11.285908609463698 0 0 0
359 1 -2.793812742216824 -2.784559502009026 9.267371748417917 0 0 0
283 1 -0.3147211531277492 -3.2447682911492706 9.766193149562861 0 0 0
281 1 -1.4209574103506952 -0.9260740769788747 8.775286269811458 0 0 0
237 1 -1.1356061648645372 -1.3545285847638375 11.132245616545314 0 0 0
360 1 -2.5954349713413105 -3.270225181155329 11.752375355264855 0 0 0
797 1 -11.914313506152382 -12.16455935358498 12.624154499173192 0 1 0
400 1 -12.64555071333059 -10.239310469827673 13.763625846452877 0 0 0
435 1 -12.366503108330733 -0.01795384124409516 14.158847436032476 0 0 0
369 1 -9.476891471063286 -12.641837027497962 12.987257169222767 0 0 0
368 1 -10.620568927855075 -10.191694496853701 11.687343382705931 0 0 0
377 1 -8.270408265828465 -10.529968135581315 12.067078664902352 0 0 0
378 1 -6.988960811291569 -13.074542937367653 13.39018263713612 0 0 0
321 1 -5.8779015841139834 -11.008957919381197 12.499727973891181 0 0 0
340 1 -3.3051194485277495 -11.402068968358174 12.952501995639492 0 0 0
1332 1 -0.8969305843421136 -11.904871402528013 13.350146271445217 0 0 0
401 1 -13.87219594106509 -7.833141854057644 12.636830398601878 0 0 0
399 1 -11.322020010608492 -8.315421180080815 13.016933858926704 0 0 0
376 1 -8.864408362779264 -8.665772035216087 13.411016109092492 0 0 0
319 1 -6.929643307069755 -8.62733429898423 11.299303204790172 0 0 0