LAMMPS data file via write_data, version 2 Aug 2023, timestep = 0, units = metal

1870 atoms
3 atom types

-14.049281959621409 14.049281959621409 xlo xhi
-14.212351406690383 14.212351406690383 ylo yhi
-13.802828732539192 13.802828732539192 zlo zhi

Masses

1 55.847
2 1.008
3 1.008

Atoms # atomic

527 1 -12.786904155807408 -13.813842369776614 -12.99082233653896 0 1 0
145 1 -11.225887359920293 -12.921340478906075 -11.284410171522493 0 0 0
1870 1 -1.282162218500229 -0.6279000797279277 -1.7837232723391594 0 0 0
137 1 -9.406544688102763 -11.682594162385257 -12.435171787082977 0 0 0
573 1 -8.497046181321027 -13.7531892058 -11.283635441497568 0 1 0
102 1 -6.5796470914938645 -12.440687991828552 -12.420875759002417 0 0 0
141 1 -3.886113286267488 -13.14962180552442 -12.324037296870756 0 0 0
100 1 -5.152155191546999 -11.546619428661534 -10.780613766243668 0 0 0
142 1 -2.317988519042686 -12.388388435039 -10.719014720769422 0 0 0
98 1 -1.1689961680199996 -13.972292190024376 -12.389692407679462 0 0 0
244 1 -1.9483073236497113 -12.063075761322564 -13.589629422764256 0 0 1
95 1 -12.168155708412613 -11.13896878799777 -12.672873441505754 0 0 0
1077 1 -13.398974553170623 -9.36952234139645 -10.99714859091313 1 0 0
161 1 -10.71257769736612 -10.179593835526564 -10.984401527962369 0 0 0
107 1 -8.737117438660139 -8.940819724737274 -12.007231622199747 0 0 0
92 1 -10.350875961869548 -9.809369842659514 -13.647349200958944 0 0 0
101 1 -7.775363744542535 -11.085427798372464 -10.812397011315667 0 0 0
90 1 -5.998210848707693 -9.626395250467116 -11.986659295958871 0 0 0
87 1 -0.05554571296387678 -8.741793595055203 -8.647397392097908 0 0 0
135 1 -3.273119113258078 -10.380732057262366 -11.8887977953753 0 0 0
157 1 -4.353295863907725 -8.781269134311104 -10.29038070158208 0 0 0
136 1 -4.796328211639221 -11.263220325226143 -13.682394799849071 0 0 0
131 1 -0.6382035700737383 -11.280778442074535 -11.88135942923888 0 0 0
242 1 -1.4929288347326182 -9.303958428870269 -13.2294118426582 0 0 1
169 1 -11.504302839074994 -8.259128380171715 -12.171205394028966 0 0 0
290 1 -12.457071330006793 -6.270744900424888 -13.36040189077945 0 0 1
168 1 -12.753539824279189 -6.769152595985221 -10.53718300381904 0 0 0
85 1 -9.72729378316821 -7.063013163529909 -13.302160243990052 0 0 0
83 1 -8.181264153671144 -6.219569683519127 -11.593006914969415 0 0 0
128 1 -6.912404625169074 -7.726312740443567 -13.160662897361636 0 0 0
91 1 -7.173884538080632 -8.10473698270817 -10.355846351438604 0 0 0
127 1 -4.2220094637215695 -8.36087197207512 -13.186274731592931 0 0 0
89 1 -5.4373484448508105 -6.924750463964916 -11.576242361060043 0 0 0
79 1 -3.4915280559653983 -5.759236494738181 -12.819439506804532 0 0 0
88 1 -2.670824126840664 -7.660282492539055 -11.592325413284216 0 0 0
126 1 -0.7701053295087235 -6.541876479111962 -12.75140876834132 0 0 0
39 1 -11.730277421641592 -3.5625922269595165 -12.801717273936887 0 0 0
40 1 -13.629130666583585 -4.710901612426591 -11.694306122800338 0 0 0
82 1 -10.92698919790851 -5.544343047569013 -11.680770496755564 0 0 0
289 1 -9.093194906678224 -4.2096302388018945 -12.832796330196505 0 0 1
38 1 -10.176799451326659 -2.743228195921585 -11.241712832408531 0 0 0
37 1 -7.47457226343457 -3.5535052457015137 -11.138344337547096 0 0 0
81 1 -6.2523806008531855 -4.994132664436293 -12.6206199992285 0 0 0
80 1 -4.658146147091994 -4.422268969006408 -11.061610003369882 0 0 0
33 1 -2.8743278221775572 -3.1207840874954673 -12.322294005876193 0 0 0
77 1 -2.0209300915290935 -4.8705968397145 -11.072088438137854 0 0 0
23 1 -12.864364533573157 -2.0418912444868837 -11.276949643411124 0 0 0
122 1 -0.0767013683399469 -3.9398728469745894 -12.243579499526462 0 0 0
285 1 -11.09162699465824 -0.8688394836410023 -12.462680275932845 0 0 1
1494 1 -0.15457678630087912 -13.963124050813104 -5.194799841717893 0 1 0
36 1 -8.211258853425456 -1.466047294791199 -12.405848105137201 0 0 0
34 1 -6.658063001640353 -0.7707363887445258 -10.737037890569418 0 0 0
42 1 -6.348390198212194 -0.37868860890201717 -13.45809443250889 0 0 0
35 1 -5.519912985854599 -2.3886473106609323 -12.388191269929456 0 0 0
32 1 -3.998752292666408 -1.5017847124533326 -10.717385978483362 0 0 0
41 1 -3.6735516387440814 -1.048430281955115 -13.561328595799887 0 0 0
1631 1 -0.9313530909361223 -1.9635620031693435 -13.440040577202987 0 0 0
304 1 -1.1978937636983744 -2.3610150090428608 -10.797655538651894 0 0 1
1187 1 -1.9792306877119454 -0.48606096548397737 -11.914442457627755 0 0 1
115 1 -11.5484223888492 -13.227676132862557 -8.51419427734982 0 0 0
149 1 -12.427649225203055 -11.340450602441233 -9.737804999848763 0 0 0
292 1 -7.5695608861542105 -10.607366366311714 -13.73283389586867 0 0 1
106 1 -9.615583528477615 -12.16343657028395 -9.587490644589518 0 0 0
125 1 -9.943752557896222 -12.413719559173291 -6.773863229105548 0 0 0
114 1 -8.732416128779185 -14.027538623751386 -8.599788316265546 0 0 0
113 1 -6.93393143467959 -12.965849837440773 -9.63128246058286 0 0 0
154 1 -5.415867592304622 -11.904436841834636 -7.889343886411979 0 0 0
112 1 -4.094573738566723 -13.523045763976576 -9.562104143809682 0 0 0
156 1 -2.6136036854186937 -12.67750806685214 -7.960050743765202 0 0 0
110 1 -0.8080065561604037 -11.506994691970496 -9.08640897080507 0 0 0
1046 1 -13.650429942011657 -9.824496953001091 -8.040809145898702 1 0 0
159 1 -11.732869195563001 -8.745577826844437 -9.256981058685348 0 0 0
151 1 -10.94222366151932 -10.526599234428396 -8.029862606656714 0 0 0
93 1 -9.103924887545908 -9.439680114967349 -9.319090899043495 0 0 0
152 1 -8.004034945234999 -11.176734837621286 -7.9782277437891835 0 0 0
163 1 -6.383072185893728 -9.968624438531599 -9.181852411628714 0 0 0
162 1 -7.577206843989783 -8.499564854899766 -7.480420830464769 0 0 0
155 1 -4.714749478606574 -9.175087704591252 -7.531505010715496 0 0 0
204 1 -3.433428200537799 -10.721588947376812 -9.21756632460143 0 0 0
165 1 -1.5569606706106516 -9.497389779433973 -10.337631311371098 0 0 0
97 1 -1.9472208278093177 -10.008997025465938 -7.523793122652927 0 0 0
116 1 -13.095521428214406 -14.194231159121214 -10.262016087268767 0 0 0
207 1 -13.032868134677978 -7.144621315288013 -7.637431748256386 0 0 0
84 1 -10.05380127119907 -7.48076306655827 -10.460402528013834 0 0 0
170 1 -11.115241449607296 -5.892036645577372 -8.76161258926059 0 0 0
160 1 -10.30251746371837 -7.757625703473001 -7.551555589121825 0 0 0
171 1 -8.390554952222448 -6.6197474782410985 -8.797090599880393 0 0 0
211 1 -6.766623617938494 -5.787588879195061 -7.07603674766063 0 0 0
164 1 -5.695994750816171 -7.196359871151353 -8.810506315938 0 0 0
175 1 -3.7723927749897292 -6.148584628469697 -9.786462614341104 0 0 0
213 1 -3.9943687658144853 -6.506528697863524 -7.110729734828149 0 0 0
99 1 -2.7728630049078102 -8.077606448910668 -8.736062783270945 0 0 0
963 1 -1.0224692797051436 -6.789001827845966 -10.023893372616598 0 0 0
206 1 -1.208791953629179 -7.28088419379251 -7.035431543452295 0 0 0
43 1 -12.104353471591137 -3.919833923767378 -10.084627312391053 0 0 0
208 1 -12.380811163453165 -4.394364050534435 -7.1108760703146325 0 0 0
1030 1 -13.865067214223664 -5.173243214263508 -8.758414235566963 1 0 0
21 1 -9.419765900571813 -4.664648284641942 -9.951868250933751 0 0 0
45 1 -10.5735296917148 -3.1833763901238115 -8.391335809821168 0 0 0
209 1 -9.634243096271092 -5.131767891531297 -7.135646267943455 0 0 0
173 1 -6.517586090773705 -5.289786766955782 -9.937932424859516 0 0 0
172 1 -7.797363198729029 -3.883390963259817 -8.236710743461323 0 0 0
174 1 -4.865395934332552 -4.66155938287457 -8.166158176400177 0 0 0
78 1 -3.239613184786819 -3.3684199095633307 -9.51001035133693 0 0 0
942 1 -0.3226081408939372 -4.27722229552073 -9.441166660211238 0 0 0
177 1 -2.1249584596123476 -5.2423279399646 -8.156140776296745 0 0 0
11 1 -0.2693824510141898 -2.5108575852508856 -0.5346658527267412 0 0 0
22 1 -13.219418582611793 -2.450417268290039 -8.424444513699818 0 0 0
8 1 -11.330371566372687 -1.272495964958516 -9.591972908748534 0 0 0
618 1 -9.956837140851803 -0.33173968555741773 -7.875748082099727 0 0 0
20 1 -8.537973768444129 -1.9215303485239499 -9.585410767303538 0 0 0
19 1 -5.825606250479476 -2.718175406927214 -9.448713272287518 0 0 0
18 1 -7.059660451371456 -1.2224000695628234 -7.854367277625498 0 0 0
17 1 -4.284244543626205 -1.8622249280884073 -7.7404924477935175 0 0 0
10 1 -1.496655551514408 -2.5820176494646283 -7.846104074955496 0 0 0
31 1 -2.4702822323154905 -0.730529046770851 -9.099762487162103 0 0 0
150 1 -12.807369276054393 -11.827956502409743 -6.747225785911848 0 0 0
179 1 -11.719008292517351 -13.719883503502055 -5.716801282902308 0 0 0
973 1 -13.003796159772456 -12.277924924285834 -4.0668543943271676 1 0 0
180 1 -10.169187348975006 -12.921629979515151 -3.997318562584498 0 0 0
129 1 -7.220675171806103 -13.199226077104743 -6.821634278406916 0 0 0
190 1 -8.375840445372093 -11.667668729988366 -5.206031934361777 0 0 0
181 1 -7.400598557781868 -13.625981897506792 -4.002692546236435 0 0 0
138 1 -4.371941753726741 -13.895288916551511 -6.785982296947186 0 0 0
192 1 -5.612785604985369 -12.304417538867732 -5.204458173092748 0 0 0
184 1 -3.945052929835887 -11.558218851896875 -3.4712684568276053 0 0 0
185 1 -2.847575150585973 -13.058509354619131 -5.225067075188598 0 0 0
147 1 -1.013628224258122 -11.965214143800276 -6.318115221224469 0 0 0
178 1 -1.118514637169847 -12.40936411331693 -3.526372944500981 0 0 0
75 1 -7.688610498635896 -14.00332017017809 -1.1621856649385283 0 0 0
198 1 -12.058970367026594 -8.985130754039893 -6.44796568262834 0 0 0
134 1 -12.276225300120966 -9.546891055265968 -3.6574823099616474 0 0 0
187 1 -13.896787713036895 -10.248335821682527 -5.337954759237048 0 0 0
188 1 -11.034815751787141 -11.050682360652857 -5.251073273255663 0 0 0
200 1 -9.4363455431046 -9.756648098000237 -6.377457248808106 0 0 0
189 1 -9.467909757084826 -10.181927797579263 -3.5639787022029576 0 0 0
153 1 -6.54869041342508 -10.324843786145916 -6.293767101604791 0 0 0
191 1 -7.80756032801167 -8.832312887568754 -4.730252949312106 0 0 0
232 1 -6.767388995860466 -10.869038050564871 -3.6311535863894093 0 0 0
139 1 -3.730757477023703 -11.07459754315778 -6.364530365694113 0 0 0
193 1 -4.94546879792232 -9.584223860629919 -4.657911420374026 0 0 0
236 1 -0.3082915409475344 -9.135863238693155 -5.90903765711596 0 0 0
195 1 -2.290941028622454 -10.255982401052314 -4.659605565200332 0 0 0
986 1 -13.169832054424775 -7.623791206048657 -4.841677918695922 1 0 0
30 1 -11.475548303587086 -6.263214337343565 -5.993557123022298 0 0 0
199 1 -10.539826531189377 -8.234001309872374 -4.7628337236897895 0 0 0
201 1 -8.60609875277148 -7.01895521101198 -5.950401854355653 0 0 0
26 1 -6.937178317437299 -6.114648870954436 -4.312001152963635 0 0 0
202 1 -5.803493289937258 -7.6863214335718375 -5.856840092986082 0 0 0
205 1 -3.1397308065658454 -8.314749894669163 -5.82219033209614 0 0 0
203 1 -4.212301861508765 -6.8099197712063875 -4.252348205046799 0 0 0
194 1 -1.4869569629043262 -7.6973554886955995 -4.150600032137815 0 0 0
215 1 -2.403110109069326 -5.7232122791217375 -5.5166051205801026 0 0 0
52 1 -12.633244099652517 -4.740348385932297 -4.459175052745959 0 0 0
1012 1 -13.39737911710724 -2.757960051127597 -5.579212415604287 1 0 0
28 1 -9.8325179949316 -5.558942144149382 -4.42058515273828 0 0 0
54 1 -10.749945727179416 -3.539045893526197 -5.395952658141933 0 0 0
47 1 -6.164810649170411 -3.133815547321557 -6.731768470691321 0 0 0
210 1 -7.969631117797084 -4.167250572455801 -5.532938563732827 0 0 0
15 1 -6.244574231587438 -3.375524045413341 -3.7482518541428718 0 0 0
176 1 -3.30784332072707 -3.834372094229389 -6.5977229359459635 0 0 0
212 1 -5.152262419511898 -4.882940175533992 -5.4066412797754975 0 0 0
214 1 -3.4504076119153027 -4.10406323406491 -3.764002838138085 0 0 0
964 1 -0.5485061804497118 -4.5150091118105475 -6.419103533477977 0 0 0
12 1 -0.9402453937953759 -5.090295614511533 -3.7190922600575593 0 0 0
935 1 -1.7746425184528682 -3.0841374911799946 -4.908834427408131 0 0 0
44 1 -11.665239501414757 -1.5996611659428321 -6.690253082183843 0 0 0
53 1 -11.811385196976364 -1.982464852909402 -3.874874023522297 0 0 0
49 1 -2.8493239849814103 -1.4431495607372096 -3.4336565109147195 0 0 0
56 1 -9.081107824669141 -2.804762175735032 -3.7900765119743056 0 0 0
46 1 -8.955763863245593 -2.21541891918573 -6.818252336412269 0 0 0
662 1 -10.058488793721367 -0.7369733939257124 -4.86203238711032 0 0 0
1089 1 -13.961347730834442 -0.20622451745881953 -12.374786810905182 1 0 0
48 1 -7.299913387218117 -1.4994678463588045 -5.221013296042539 0 0 0
16 1 -5.383780464393789 -0.47837013680041274 -6.235086390592168 0 0 0
58 1 -4.4733671252539065 -2.4240789220814634 -5.002070273765938 0 0 0
624 1 -2.636823050364413 -1.0603004496697892 -6.183553868336864 0 0 0
474 1 -0.9095259208460789 -0.19248979866993388 -4.624410422926145 0 0 0
74 1 -13.335381797129518 -12.526974228566361 -1.248957700995179 0 0 0
228 1 -11.387601205332553 -11.454437827610317 -2.4951351286996886 0 0 0
1 1 -3.195327151583202 -1.7895245177675996 -0.47821057850317317 0 0 0
220 1 -10.401049601104376 -13.336017079326227 -1.2592175460002935 0 0 0
182 1 -8.585670601616133 -12.164197311518798 -2.3252530164006924 0 0 0
61 1 -0.10860943231106113 -2.1253483537946654 -3.2738777235626415 0 0 0
222 1 -5.785511179618457 -12.851958698596501 -2.3894104437336203 0 0 0
221 1 -6.899956379492232 -11.373202071564915 -0.8379171286335847 0 0 0
223 1 -4.255721474265938 -12.11836500644405 -0.732189344937872 0 0 0
186 1 -2.9554894717858335 -13.667293231298675 -2.27674018415391 0 0 0
498 1 -1.40660005789724 -12.744693363424977 -0.6585401676768043 0 1 0
71 1 -12.56882849267181 -9.831081364190247 -0.8965363745744259 0 0 0
230 1 -9.784952655454909 -10.63529264932637 -0.8763729771221538 0 0 0
229 1 -10.693992749528764 -8.651745557834834 -2.0121573381101303 0 0 0
231 1 -7.8427919589016835 -9.377517804791093 -1.9530316322407533 0 0 0
68 1 -6.414379090342624 -8.503551044344917 -0.14562653668928682 0 0 0
234 1 -3.537985000173755 -9.24935295552276 -0.15264566940303226 0 0 0
235 1 -3.1787986065396883 -8.945814299178911 -2.961679300988914 0 0 0
233 1 -5.120228938127125 -10.047965404064069 -1.8868815899786728 0 0 0
270 1 -0.776207325481149 -9.970248638295882 -0.26891057853739575 0 0 0
224 1 -2.4312004930567905 -10.860500040821584 -1.7372402955581503 0 0 0
117 1 -0.5584068372551325 -9.599800872553228 -3.139769074499158 0 0 0
66 1 -11.773617356078763 -7.060992209780282 -0.49168511006264737 0 0 0
133 1 -11.650395346641456 -6.744007157672895 -3.1983340726070733 0 0 0
1123 1 -13.409917492764608 -7.884053332998013 -2.0606920254529975 1 0 0
69 1 -9.15172826663579 -7.790656183689775 -0.2542590557609472 0 0 0
132 1 -8.65508923969674 -7.323471756942478 -3.078001156488808 0 0 0
64 1 -9.881477386101523 -6.019612379405196 -1.5621532691215414 0 0 0
119 1 -6.03454420627973 -8.11142626844791 -3.0555044838521432 0 0 0
120 1 -7.254632876468333 -6.506524154018621 -1.359415771454513 0 0 0
67 1 -4.550249467519233 -7.226503934371555 -1.4507820917944798 0 0 0
105 1 -2.8058546202023926 -6.065691276874809 -2.5736559625827002 0 0 0
225 1 -1.6189210169731982 -8.05412791766996 -1.3546681817291972 0 0 0
7 1 -12.770267960550285 -5.15927173582433 -1.6166613116783406 0 0 0
1133 1 -13.611543487271405 -3.1189010673287143 -2.741059657309032 1 0 0
29 1 -11.006700528584107 -4.088768765658763 -2.6742381106625768 0 0 0
464 1 -9.382364356739636 -3.2765326655851865 -1.1258210226961314 0 0 0
27 1 -8.110588740643273 -4.698778150597651 -2.6596879173589674 0 0 0
63 1 -6.464004451563899 -3.8478766820357766 -1.058027971408448 0 0 0
118 1 -5.383708296136412 -5.2741017857997345 -2.555537863277854 0 0 0
62 1 -3.8594511419455753 -4.505237552799063 -0.797649257836822 0 0 0
103 1 -0.9860851388042544 -5.358877764578676 -0.9638655301821757 0 0 0
14 1 -1.9644286164517641 -3.3286330156716257 -2.0770821269004234 0 0 0
661 1 -12.913416554819616 -0.5839372170939363 -2.3493728861365106 0 0 0
5 1 -12.143011087459556 -2.5142581932125694 -1.1416969903914431 0 0 0
3 1 -8.63616702670225 -0.5801329745333703 -0.545649245767974 0 0 0
55 1 -10.180665872148332 -1.2616977799868554 -2.293284546431323 0 0 0
57 1 -7.448557816950945 -1.9375133420063815 -2.19028885820976 0 0 0
13 1 -5.790733529003354 -1.1099768504911793 -0.574396470120897 0 0 0
666 1 -5.579443708326185 -0.7707542433140819 -3.5059839085684583 0 0 0
659 1 -4.762031406248791 -2.5883601357540833 -2.141064961065517 0 0 0
218 1 -12.097242469536813 -14.052703759162029 -2.778670242668838 0 0 0
96 1 -13.107553517598848 -9.15661591029075 -13.762138414303454 0 0 0
1405 1 -12.728759203726952 -0.027691937841332503 -5.099431830981972 1 0 0
554 1 -0.7927761216413032 -0.00344254914525699 -7.452027608407262 0 0 0
664 1 -8.246681135765446 -0.009365712670549087 -3.4480106071180767 0 0 0
456 1 -13.36437551262757 -13.05317612081806 1.5075858912278193 0 0 0
73 1 -11.695875073404892 -11.765236637640236 0.40377779116255574 0 0 0
458 1 -11.870817039015867 -12.228273450112521 3.18262461584437 0 0 0
219 1 -10.66524324989709 -13.664388222775042 1.6424164856808279 0 0 0
454 1 -8.804492959887988 -12.493742625405055 0.4591127645954778 0 0 0
704 1 -9.147649043563 -12.840996022829716 3.295786025175163 0 1 0
452 1 -6.1183986732265225 -13.245287329849187 0.5443439371102556 0 0 0
415 1 -7.249696156462223 -11.753023766477003 1.9984774682285522 0 0 0
453 1 -6.260871797874174 -13.634359425361554 3.3356191900308314 0 0 0
446 1 -4.388001335167688 -12.490837601111222 2.1098690897701555 0 0 0
451 1 -3.3119132127276654 -13.884274077588307 0.42108716798981405 0 0 0
273 1 -1.766753528230641 -13.191954648276171 2.210979563061917 0 0 0
457 1 -12.734957695166257 -10.130122705596907 1.9868091124923097 0 0 0
450 1 -11.021228480026222 -9.111224492872932 0.7199794835563225 0 0 0
455 1 -10.128121564011735 -10.98055342221 2.0442685150560234 0 0 0
448 1 -8.269696464830254 -9.88419522596773 0.8690907011044331 0 0 0
445 1 -6.562419083679927 -8.95861626616296 2.4386564927022203 0 0 0
72 1 -5.405157469906408 -10.356806742378463 0.9241913918389368 0 0 0
443 1 -3.872386147502681 -9.699967626981397 2.6682467402061807 0 0 0
272 1 -2.5646948387522883 -11.06726841321473 1.0188988701423405 0 0 0
271 1 -1.0812312188662343 -10.408783700266152 2.735627610177511 0 0 0
70 1 -13.780618910907592 -8.228258813492033 0.7948612012334735 0 0 0
449 1 -12.086423828338674 -7.51239962291371 2.5405878078638846 0 0 0
447 1 -9.521068979917484 -8.242417508658832 2.421850776596637 0 0 0
440 1 -10.323715739295753 -6.181806373001269 1.3194725594562637 0 0 0
438 1 -7.586902088210776 -7.088273403145021 1.4182393393961714 0 0 0
437 1 -5.920538129318292 -6.281478121986814 3.0293798337558666 0 0 0
467 1 -5.735186456393361 -5.818288405646511 0.2349673847600613 0 0 0
436 1 -4.542088856052425 -7.704765130408725 1.3859674115314853 0 0 0
435 1 -3.1244475900926414 -6.975867775191337 3.189555749031049 0 0 0
466 1 -2.871435331767554 -6.442386947964303 0.18194654071028182 0 0 0
444 1 -1.9251709848255345 -8.37391246625995 1.4904772499678849 0 0 0
269 1 -0.3320270329634898 -7.563151788529825 3.099150597432301 0 0 0
358 1 -13.975124967523687 -2.002536095089974 9.02835769183338 0 0 0
442 1 -13.01659438738589 -5.6520168839393286 1.28011292683318 0 0 0
441 1 -11.387160204210508 -4.753462735715434 3.064266169242318 0 0 0
433 1 -12.299605497507004 -2.8108298867070403 1.7056375014753353 0 0 0
775 1 -9.820012858435618 -14.046080313507652 11.85927653932819 0 1 0
469 1 -11.224557669675644 -4.36406278047926 0.09928823138163878 0 0 0
439 1 -8.633963588305342 -5.569735136767314 2.937073011789055 0 0 0
431 1 -9.629510488949752 -3.61593189754951 1.7355433092462071 0 0 0
284 1 -5.346169056884786 -1.9282851711072286 12.487037099995772 0 0 0
429 1 -6.817458148528488 -4.168399072651171 1.8960325956839128 0 0 0
427 1 -4.045103331993754 -5.015857006541223 1.8320115053490937 0 0 0
462 1 -4.995244130636985 -3.0715060649397063 0.6863155310553477 0 0 0
268 1 -1.2841782323547548 -5.776370340298035 1.849993511798015 0 0 0
461 1 -2.157905515351217 -3.776304577808201 0.6111955828733109 0 0 0
267 1 -0.5935805933055676 -2.8212459440227136 2.3109359754985217 0 0 0
715 1 -13.220530629943909 -0.9758102489998919 0.48955052543869115 0 0 0
1218 1 -13.617154467040919 -1.3697073551391803 3.2533159425902642 1 0 0
274 1 -0.04102544957271803 -7.244729396189829 0.33956422314511947 0 0 0
424 1 -8.860832733604044 -0.7860023666090665 2.1987324369525805 0 0 0
465 1 -10.531463283628433 -1.6963370435961203 0.5550745973747091 0 0 0
432 1 -10.835090399740965 -1.9730939476016705 3.498060945790167 0 0 0
463 1 -7.789537238725436 -2.3662450416212835 0.5156664015734549 0 0 0
422 1 -6.195509483002468 -1.590161541600942 2.295025887418314 0 0 0
420 1 -3.3581206260409875 -2.2498680178270956 2.3066923002156248 0 0 0
460 1 -4.286483009136271 -0.31661960218517926 1.1510278963667027 0 0 0
459 1 -1.5373881552177142 -1.0151491327936029 1.0135152105194418 0 0 0
378 1 -12.124499658756527 -12.637604557742444 6.108622050722159 0 0 0
417 1 -13.720725478029411 -13.267704094470286 4.475823301050648 0 0 0
894 1 -10.92892251891245 -14.099301875978828 4.449203827520231 0 1 0
376 1 -9.334253814812966 -13.371145736914515 6.071404214191334 0 0 0
892 1 -6.678507716191423 -14.067266430870776 6.148589040567666 0 1 0
414 1 -7.4979891053147405 -12.149843773763763 4.931655988017782 0 0 0
413 1 -4.687461311290942 -12.765386487335086 4.940279887080605 0 0 0
259 1 -3.185298785708069 -12.019296362156805 6.688269281367303 0 0 0
265 1 -2.891998531655803 -11.70371660870774 3.8313333844974817 0 0 0
266 1 -2.0877267714917167 -13.534963967026975 5.104611152064921 0 0 0
257 1 -0.24004171458031998 -12.76834084239271 6.579329962658422 0 0 0
1348 1 -0.18053612186052526 -12.35093861199627 3.8439193136036547 0 0 0
418 1 -13.196789846774191 -10.564422197516645 4.9270087991989815 0 0 0
379 1 -11.463421322298391 -9.78027167167776 6.506153147445199 0 0 0
237 1 -0.7592780998521569 -1.4097549883768146 11.289254686048823 0 0 0
410 1 -11.133453977473721 -9.412943945713671 3.6993338525812565 0 0 0
416 1 -10.405817831931213 -11.323775393202428 4.916915179485622 0 0 0
370 1 -8.694799582637636 -10.585812683203645 6.463216878280894 0 0 0
409 1 -9.673011677718382 -8.56054138269102 5.348553132396857 0 0 0
408 1 -8.44972243868894 -10.221408881060244 3.760902649070113 0 0 0
368 1 -6.04959246644573 -11.325432973845976 6.6156612233781065 0 0 0
407 1 -6.75923581383656 -9.335083765304738 5.39262612775663 0 0 0
406 1 -5.692589748449519 -10.808339963807592 3.8295816569030077 0 0 0
405 1 -4.0642169299208675 -10.092766265045771 5.389344518430741 0 0 0
264 1 -1.305276820831386 -10.900519624637063 5.554362115885384 0 0 0
263 1 -2.1979269415109677 -8.960856336284309 4.258990855679224 0 0 0
372 1 -12.414033018882494 -7.781334164961942 5.47306257454416 0 0 0
404 1 -13.414028911981259 -5.884213496800806 4.226247013274291 0 0 0
402 1 -10.5332254647839 -6.68950448757593 4.177405360478813 0 0 0
401 1 -8.94747552938603 -5.88763664466318 5.807843772389942 0 0 0
400 1 -7.816633398479695 -7.456704153596091 4.152346089185004 0 0 0
399 1 -6.204472276875944 -6.540823224555711 5.900032508479617 0 0 0
398 1 -4.946686175288301 -8.122171534260126 4.323812219251712 0 0 0
397 1 -3.3160162183348643 -7.302494582418843 5.885749009099056 0 0 0
262 1 -0.6562902316683292 -8.081195767254194 5.973126011357367 0 0 0
261 1 -1.5393783954188507 -6.147754952853184 4.6979548968208835 0 0 0
403 1 -11.565083110567782 -5.115196208046859 5.821017237864082 0 0 0
395 1 -12.51214043079966 -3.2146369801040127 4.6265853108920165 0 0 0
393 1 -9.823011850737153 -3.9973387068828856 4.609276517559737 0 0 0
392 1 -8.20684618412737 -3.089811525902448 6.351949986315185 0 0 0
391 1 -7.248445595602749 -4.717096092813618 4.669559365582023 0 0 0
428 1 -5.1530059179542125 -3.404225445061355 3.570536304774704 0 0 0
390 1 -5.493117633346609 -4.041178062279531 6.267365796600709 0 0 0
389 1 -4.255860353085225 -5.438931299259753 4.656224955251362 0 0 0
426 1 -2.320955232979049 -4.179972082969961 3.4873789212519792 0 0 0
388 1 -2.6549231087070293 -4.698177426306799 6.366667508844548 0 0 0
260 1 -0.7204232539834461 -3.34596914953409 5.182649487512778 0 0 0
387 1 -11.9848894460944 -0.518688801916726 4.9380759022240195 0 0 0
348 1 -13.654765774478953 -1.6978473570071486 6.228359521198174 0 0 0
394 1 -10.87696561390155 -2.419478318911043 6.242393972423196 0 0 0
385 1 -9.207047421076117 -1.2359935358360872 5.113641778513058 0 0 0
430 1 -8.198800180930512 -2.765271434654867 3.3451328536393543 0 0 0
383 1 -6.454606076703896 -2.012919444563501 5.0599857396181225 0 0 0
384 1 -7.616118309782286 -0.4086741731273289 6.795075062512412 0 0 0
468 1 -8.461871133540448 -5.025984176184473 0.2141728469673314 0 0 0
381 1 -3.540013477867909 -2.685588737928816 5.142314883058448 0 0 0
421 1 -4.57100975913103 -0.795152349992625 3.8809058715497873 0 0 0
382 1 -4.869455061271072 -1.2579874781258518 6.819598869790935 0 0 0
419 1 -1.7636438072785054 -1.3587710317917772 3.890363322475322 0 0 0
380 1 -2.064459560967334 -1.900315206175442 6.792780544418678 0 0 0
239 1 -0.17169213459374255 -0.5436967826216463 5.686357065419243 0 0 0
339 1 -12.367367145365515 -13.049253913012663 8.850325252287318 0 0 0
423 1 -7.393260899551297 -0.04388528541987391 3.9995213763081967 0 0 0
377 1 -10.575589242656363 -11.762940226104401 7.750902997226886 0 0 0
337 1 -9.67809474155732 -13.717562690396967 9.015060453914023 0 0 0
375 1 -7.904115091573015 -12.548636371445008 7.77820921717362 0 0 0
331 1 -6.253348578882044 -11.751992453936225 9.543173578927691 0 0 0
374 1 -5.008915664338771 -13.216361389969357 7.891153866565231 0 0 0
252 1 -3.3628994444222755 -12.487041483246728 9.508467822549 0 0 0
834 1 -2.1030259173928556 -13.862782816324065 7.723457259132944 0 1 0
250 1 -0.7111075530826572 -13.196425444807977 9.558373376262994 0 0 0
335 1 -13.24767228565489 -11.07525104799802 7.670965450622424 0 0 0
373 1 -11.755299184060487 -10.263834291521114 9.473812222770396 0 0 0
333 1 -8.94988239109435 -11.063765121016246 9.333875353231809 0 0 0
371 1 -9.87723695838515 -9.17818614820887 8.105460316230827 0 0 0
369 1 -7.1858337087280155 -9.81523954482646 8.249451708868188 0 0 0
323 1 -5.616141207885464 -9.002043251793971 9.867039934835029 0 0 0
367 1 -4.4133457785371295 -10.600094550682124 8.282587499539128 0 0 0
258 1 -1.6139514453935533 -11.264309523742238 8.30550368029317 0 0 0
249 1 -2.6724156196261983 -9.678747215822625 9.771150858297434 0 0 0
256 1 -2.5177602743794285 -9.271429760388461 7.1210318400316925 0 0 0
366 1 -13.572003425948957 -6.437870085329383 6.999805997447032 0 0 0
329 1 -13.783359527300403 -6.896713479886418 9.83523438521628 0 0 0
1245 1 -12.627386579570892 -8.418019900705122 8.12859355722451 1 0 0
364 1 -10.641475304763329 -7.070019151097332 6.983265761497156 0 0 0
327 1 -10.969811384652793 -7.61959291636187 9.783464646213217 0 0 0
363 1 -9.234583891034474 -6.4296117078543125 8.812151198397077 0 0 0
362 1 -7.951511054982143 -7.892951277648638 6.978410478245921 0 0 0
325 1 -8.258366236376286 -8.292089205883407 9.90306510259171 0 0 0
361 1 -6.449971283335182 -6.9753673807763885 8.689815660179045 0 0 0
360 1 -5.242273186834469 -8.575543144679413 7.151429148387992 0 0 0
359 1 -3.680553755236451 -7.740940604156567 8.759664174823948 0 0 0
351 1 -4.57958121786165 -5.939819486314795 7.502457324710479 0 0 0
255 1 -0.8225639698669927 -8.504913666835074 8.708771169918835 0 0 0
254 1 -1.7514737017698323 -6.720028262274822 7.456052595847895 0 0 0
1297 1 -0.19501898819303243 -5.886653269580403 9.197023522863573 0 0 0
365 1 -11.953464922048319 -5.5800440172737265 8.743348016454908 0 0 0
357 1 -12.807744391400847 -3.6714851122459375 7.477981194321211 0 0 0
1313 1 -13.027977774920963 -4.015612529232381 10.149543032884834 1 0 0
355 1 -10.00966035462627 -4.411743750909206 7.657868682311802 0 0 0
354 1 -8.358552601729086 -3.6257989808464544 9.161793932282427 0 0 0
318 1 -10.401373431783036 -4.80836358987043 10.322150855367271 0 0 0
353 1 -7.328575687573325 -5.15753219167169 7.457626292655286 0 0 0
352 1 -5.847256511876116 -4.167968357877445 9.180639325794067 0 0 0
316 1 -7.728697709599491 -5.526819862374797 10.400480734727045 0 0 0
342 1 -3.8025808393935474 -3.0604490842456666 8.015095889595854 0 0 0
350 1 -3.0496421595131515 -5.157269130599083 9.100960284366769 0 0 0
253 1 -1.0945071226436909 -3.9816149379297627 8.060092785579572 0 0 0
347 1 -12.104803926559056 -0.9102792071701256 7.91614858612815 0 0 0
356 1 -11.140104052677135 -2.7653088304727333 9.073249786507214 0 0 0
346 1 -9.349079630122688 -1.6564989259291476 7.968795529939536 0 0 0
951 1 -1.731950667339314 -0.033652534880662444 12.862949523137972 0 0 -1
344 1 -6.569060767649245 -2.3991061976796306 7.954964396156088 0 0 0
345 1 -7.7598703027884985 -0.7116154154136431 9.582212795715742 0 0 0
343 1 -5.073204609303115 -1.4735161432543276 9.657494025710234 0 0 0
280 1 -3.335639841715066 -0.3793215120795246 8.333840676853557 0 0 0
341 1 -2.2285018703483868 -2.3038366400376766 9.642090589913439 0 0 0
238 1 -0.4790035110356481 -0.9635735070070286 8.368406504101161 0 0 0
300 1 -12.610698525971085 -13.442880735945726 11.842367837669245 0 0 0
109 1 -13.787671406420884 -11.88902542149724 13.358254644586749 0 0 -1
340 1 -13.588440125563213 -11.533997325010628 10.624546045215892 0 0 0
425 1 -11.63041070676435 -0.14619013825275395 2.1469809926130736 0 0 0
302 1 -11.01090946448654 -12.566997786876378 13.506364929083789 0 0 0
338 1 -10.830131448568519 -12.187562268201308 10.577741095859706 0 0 0
144 1 -8.088430803918339 -13.116294679002078 13.514933968918518 0 0 -1
298 1 -8.069102450835128 -12.889390602705827 10.656105825869188 0 0 0
297 1 -6.303707947460248 -12.096428213338378 12.312202675743682 0 0 0
295 1 -5.431893146361707 -14.05078442762334 13.477167282640755 0 0 0
296 1 -5.332561328202134 -13.664473871066456 10.729452866626675 0 0 0
245 1 -3.7575896376960234 -12.7428411887203 12.446299274785451 0 0 0
767 1 -0.9377189520621609 -13.615753179606514 12.267015119637739 0 1 0
251 1 -1.9905974089153489 -11.54528410662591 11.229978071448441 0 0 0
306 1 -2.627536920753885 -2.703994892322136 12.447500027151742 0 0 0