LAMMPS data file via write_data, version 2 Aug 2023, timestep = 0, units = metal

1862 atoms
3 atom types

-13.98893071033912 13.98893071033912 xlo xhi
-14.131976947206855 14.131976947206855 ylo yhi
-13.814222722045573 13.814222722045573 zlo zhi

Masses

1 55.847
2 1.008
3 1.008

Atoms # atomic

949 1 -11.256810001266212 -10.88617714040259 -13.176248786378876 0 0 0
955 1 -12.10124523289809 -12.162662165408124 -11.149799893505214 0 0 0
950 1 -9.582488570203125 -10.680699238814578 -11.441168825411273 0 0 0
1363 1 -13.367635723366329 -9.938112336840353 -12.453847124697974 1 0 0
957 1 -9.853776219916668 -13.09300611570549 -11.885594230885541 0 0 0
948 1 -12.529394672612913 -10.830915107687723 -8.676271916054851 0 0 0
954 1 -10.424836658273316 -11.921210235190145 -9.320106580248323 0 0 0
1288 1 -12.857612780420132 -13.378541028397958 -9.028758138247287 1 0 0
947 1 -11.735905217391348 -9.773584391972307 -10.746769213648516 0 0 0
985 1 -10.112805686987137 -9.367572021253384 -8.820023120102885 0 0 0
984 1 -8.653323062372355 -9.631440699046461 -13.51367287760053 0 0 0
932 1 -13.655712533333919 -12.365518873192647 -12.979166682359399 0 0 0
946 1 -13.866315526855121 -8.748912680368758 -9.921729203641757 0 0 0
933 1 -11.48524791822966 -13.240832457396648 -13.665672363062736 0 0 0
964 1 -8.259610090010788 -12.653035163100354 -10.04859256167624 0 0 0
951 1 -5.863614478860997 -11.5892646325366 -10.19691117018424 0 0 0
986 1 -8.061214366112615 -10.416352768115402 -9.563675509997392 0 0 0
996 1 -7.328523873315856 -11.590351831730182 -12.161474461751219 0 0 0
1658 1 -5.203537764050031 -12.743717139769334 -12.889988088693576 0 1 0
987 1 -3.8180144934219893 -12.47825616599048 -11.074132180127673 0 0 0
776 1 -4.953320912160462 -10.362797402358021 -12.336150107625382 0 0 1
1039 1 -7.073736464307216 -9.43871419339109 -11.631005108042043 0 0 0
1051 1 -5.393225079525362 -9.095980814653153 -9.868181987029242 0 0 0
1009 1 -4.625859505090487 -13.737028540979342 -8.968842214422526 0 0 0
997 1 -4.185980288794241 -11.303245390195393 -8.50928055722569 0 0 0
1040 1 -3.298565981551384 -10.111176957993376 -10.663769057403869 0 0 0
1663 1 -6.10011475088968 -13.846959787922506 -10.805177345017213 0 1 0
988 1 -3.168117123318684 -13.826201501269692 -13.61088066693085 0 0 0
958 1 -6.767773539138463 -12.741093900259068 -8.290909308390118 0 0 0
864 1 -2.845174978597207 -11.446148175158307 -13.098388024279833 0 0 1
1555 1 -7.695297179775914 -14.004308822715178 -12.49255179138083 0 1 0
1041 1 -1.226932567202617 -11.309524719810064 -11.371849792660308 0 0 0
1053 1 -2.1178677850175784 -12.416254994735464 -9.316541106819631 0 0 0
1055 1 0.00410455832693124 -13.500066499152451 -10.036957928179612 0 0 0
1154 1 0.44687795034271005 -11.313672182180035 -9.626102904265423 0 0 0
1134 1 1.3517928115831097 -9.977688583781493 -11.5691324435316 0 0 0
1054 1 -1.6000272352636085 -10.027425698066198 -8.83651354815294 0 0 0
915 1 -1.759989912718618 -13.71314346893365 -11.731787420422775 0 0 1
911 1 0.8959490471870062 -12.392716178982473 -12.083822984986679 0 0 1
856 1 -0.21858059161857923 -10.058568155903611 -13.404952792326466 0 0 1
765 1 -2.414411141724628 -8.942192274687791 -12.586608397465747 0 0 1
1119 1 -0.6589096459008577 -8.854702924867937 -10.811664048561497 0 0 0
847 1 2.3634058851012885 -8.836915021163103 -13.569299276388776 0 0 1
1133 1 0.8640071825307327 -8.701252609744582 -9.061068887349432 0 0 0
1136 1 2.644146190039132 -12.232617748777235 -10.404630081410621 0 0 0
1135 1 3.135958455230158 -9.855254221380594 -9.813751691385253 0 0 0
1137 1 6.018497159131426 -9.67851543652893 -12.507095099029042 0 0 0
1156 1 4.903322653640201 -13.194719652347091 -11.119063885429751 0 0 0
1260 1 5.151703047242558 -10.853190139471991 -10.435086161126042 0 0 0
1262 1 7.332201841799799 -11.8847481728322 -11.28743800592371 0 0 0
898 1 5.59927911575585 -11.9852407840611 -13.260498309860425 0 0 1
905 1 3.510489515453843 -11.118500947045735 -12.273092937480541 0 0 1
1261 1 6.960325529046221 -10.641618688243582 -8.776732678618327 0 0 0
906 1 3.2208254661086944 -13.530202995454221 -12.822414266488613 0 0 1
1157 1 6.4141881407617465 -12.982871918017576 -9.223964840060072 0 0 0
1237 1 7.7938047050517465 -9.620719503015145 -10.80805836732866 0 0 0
1176 1 4.325207970794727 -11.90515101209754 -8.471568350240805 0 0 0
1238 1 8.132950024234232 -10.653342610325124 -13.24880661479499 0 0 0
1236 1 4.024371113922912 -8.58316162236503 -11.774716550478342 0 0 0
1138 1 7.861909635152406 -12.991385751756733 13.779037554113396 0 0 -1
931 1 13.738584855745584 -11.053981092608739 -10.483273740839895 -1 0 0
1239 1 9.549277164818298 -12.784364443429775 -12.060318944988374 0 0 0
1263 1 11.577409181939123 -10.253631401659032 -9.784478743803916 0 0 0
1387 1 11.964670446490226 -11.336259870602277 -12.214788899040954 0 0 0
1385 1 9.975560111395646 -10.435342456009444 -11.61209073668202 0 0 0
1285 1 11.315065384925107 -12.59617195328527 -10.209135529934981 0 0 0
1408 1 9.0099333375136 -11.594213462846682 -9.618299691400498 0 0 0
1264 1 11.765685255593676 -13.784745779815301 -12.79540020050075 0 0 0
1384 1 9.30375386816709 -9.25982691767209 -8.99823677417119 0 0 0
1287 1 13.401163007889265 -13.3510979755166 -10.999759621886533 0 0 0
1514 1 12.466904455935447 -8.993596579282508 -11.731702076354404 0 0 0
1362 1 10.983878213005609 -9.323229609159672 -13.555574403171146 0 0 0
1410 1 12.894276088107953 -12.36696808717546 -8.502179189921515 0 0 0
1844 1 8.553347343112785 -14.007053468102997 -9.86580425975474 0 1 0
690 1 -10.852279072642899 -8.546759011445976 -12.632517773755621 0 0 1
1037 1 -9.161983449520905 -8.282426641202568 -10.990703921772669 0 0 0
981 1 -12.708266913596704 -5.209407721433289 -11.469005543876486 0 0 0
982 1 -11.357963692400837 -7.480640114319584 -10.232450593475527 0 0 0
1035 1 -10.061793525620613 -3.862271337521566 -11.970230954249018 0 0 0
991 1 -11.004209998795101 -5.110802055608982 -9.650506289152233 0 0 0
1622 1 -13.135201336165835 -4.100504841287275 -8.822191488005167 1 0 0
990 1 -13.606049017741364 -6.318408131603388 -9.422427781027743 0 0 0
577 1 -13.010727256222033 -7.419747674938506 -11.950217049451688 0 0 1
566 1 -10.503835446696298 -6.2424225473581165 -12.339544217685331 0 0 1
993 1 -8.88961500176752 -5.862246005812917 -10.573954954836637 0 0 0
1003 1 -9.796326496692828 -7.0003962835535996 -8.416018571851794 0 0 0
978 1 -11.627094088300845 -4.110024561980936 -13.69143331247073 0 0 0
1045 1 -10.913421898779967 -2.8958678689198614 -8.546491531829927 0 0 0
1047 1 -8.418087149390026 -3.660628604008661 -9.922167495334268 0 0 0
679 1 -8.372757105674253 -7.227282277604494 -13.066147905239283 0 0 1
1005 1 -7.580236405485546 -8.036766151289452 -9.061735347101637 0 0 0
1036 1 -7.783178757941348 -4.736159897121926 -12.553972558805532 0 0 0
995 1 -6.544742294709932 -6.975478468140142 -11.238148336611594 0 0 0
1049 1 -6.344082027623803 -4.57773178508806 -10.599443343865998 0 0 0
1050 1 -4.860091368573071 -6.570147449696406 -9.453258828499845 0 0 0
1130 1 -4.086963605511453 -5.582106451939904 -11.474644778363112 0 0 0
775 1 -4.45129235381544 -8.017082787451926 -11.847777441757527 0 0 1
1048 1 -4.506418075101701 -4.268261354320375 -9.08981243113957 0 0 0
1115 1 -5.339586697022202 -3.3254203130738205 -12.892524672504493 0 0 0
1038 1 -5.722640142240133 -5.803381647747413 -13.212988997673158 0 0 0
1066 1 -7.2087315876861835 -5.693190740528308 -8.581768721675378 0 0 0
1128 1 -3.687850095019991 -3.260756848361824 -11.056127652318244 0 0 0
764 1 -3.1251438599406764 -4.464027891313023 -13.531372617768072 0 0 1
670 1 -6.252803538618938 -8.308420785037827 -13.557487684701977 0 0 1
1132 1 -2.7172706179259656 -7.6883444532975345 -10.208140160871338 0 0 0
1146 1 -6.687478333969808 -3.3564356237323985 -8.165940486558998 0 0 0
1150 1 -2.435411125919037 -5.341055979415334 -9.690279183508684 0 0 0
1117 1 -1.4909699593894032 -4.338046098004579 -11.795185453511465 0 0 0
1232 1 -0.2713830815106313 -6.479103518944191 -10.451731970189648 0 0 0
1230 1 0.10929729133955846 -4.11044605939901 -9.986201633148596 0 0 0
752 1 0.6181430232609948 -5.380294095922984 -12.418948439858882 0 0 1
1118 1 -1.9922831481323922 -6.694977545594756 -12.227950504238875 0 0 0
1234 1 1.7592354001857586 -7.551998072875195 -11.1001985913325 0 0 0
753 1 0.20762865431571775 -7.7054965754762 -12.99364810286719 0 0 1
1153 1 1.226637410789479 -6.3352417785485375 -8.640901359290547 0 0 0
1256 1 2.2051474882834743 -5.145937299140391 -10.57837137781201 0 0 0
1131 1 -1.1246743836444661 -7.580064216428295 -8.362658616516214 0 0 0
742 1 2.755874355069965 -6.379444401209143 -13.011250967451922 0 0 1
1129 1 -2.0664228479199416 -2.9746264470090065 -9.33499049961329 0 0 0
1217 1 0.988755147251636 -2.8597755879911535 -12.052162237041696 0 0 0
1258 1 5.698746677349172 -8.467433033371044 -10.032737427169298 0 0 0
1218 1 3.1434962579307655 -4.069513276062404 -12.746499802743795 0 0 0
1233 1 4.356225073778132 -6.187899159996179 -11.286916977207905 0 0 0
1235 1 6.517268172157708 -7.247751754361247 -12.071767142934524 0 0 0
1358 1 6.86104436673102 -4.86488738796408 -11.534895865618083 0 0 0
1381 1 6.046169362910609 -6.061601718114391 -9.536533677948075 0 0 0
1155 1 3.470781454556503 -7.480975777198092 -9.28148112486475 0 0 0
1257 1 3.8352616104789607 -5.012623472473791 -8.811760920522573 0 0 0
1380 1 6.241875042467976 -3.7841183367200255 -9.003624598769875 0 0 0
1355 1 4.647449968099275 -3.762057876127706 -10.86099568519555 0 0 0
1357 1 5.300779337781934 -5.023860853090142 -13.426400232376405 0 0 0
1383 1 8.102337480395365 -6.942421261867984 -10.16203459872383 0 0 0
1485 1 7.785754891233166 -3.874143070019384 -13.721560277336314 0 0 0
1508 1 8.559335473027454 -4.607134793339368 -9.662613474033705 0 0 0
1361 1 8.685910104347949 -8.190781580034908 -12.740423140575619 0 0 0
1512 1 10.219147952413126 -8.076787302349686 -10.998544640059304 0 0 0
1511 1 11.981675103129513 -7.932428056789813 -9.202485175127386 0 0 0
1360 1 8.830409270237174 -5.917777184284537 -12.218276013083951 0 0 0
1486 1 11.525037068697282 -4.675771730907101 -12.413172359634634 0 0 0
1487 1 11.10504320228778 -6.931098888496184 -12.928668906059332 0 0 0
1510 1 10.582708589165469 -5.80369947486945 -10.370067764249127 0 0 0
1488 1 12.796479110479405 -6.651459698792187 -11.19232545996364 0 0 0
1509 1 12.236838979133205 -5.576024445889201 -8.586084408133992 0 0 0
1620 1 13.033024521810825 -4.371837993254799 -10.705735149619379 0 0 0
1484 1 9.36606865654811 -3.6293989896733088 -11.872748001778449 0 0 0
1618 1 10.975453815015674 -3.418923418191101 -9.948901696612976 0 0 0
1382 1 9.752022028581143 -7.017831823368778 -8.446272816634682 0 0 0
808 1 13.806624601700081 -5.364657177570749 -13.424888100947294 0 0 1
980 1 -13.878222085628733 -3.0642984170541503 -12.78159771134831 0 0 0
1033 1 -12.409625624657817 -2.9092794227761605 -10.844503278745163 0 0 0
1034 1 -10.085823777802544 -1.9070692863941332 -10.392071053435547 0 0 0
1111 1 -9.813170968725707 0.5177174197804373 -9.85258875401032 0 0 0
1032 1 -12.332828388702676 -0.7971806162904791 -9.81115023812067 0 0 0
1752 1 -11.48041123315037 0.2629155851873417 -11.617793116515989 1 0 0
464 1 -11.490127313604692 -1.8489910133897194 -12.891402627643107 0 0 1
1106 1 -9.298332978508805 -0.8841843430784895 -12.191944965676738 0 0 0
1110 1 -11.990604077682162 1.5177775056334433 -9.290001118350705 0 0 0
1109 1 -13.493795780627128 1.3517528128398322 -11.031291837332413 0 0 0
329 1 -8.805382561010227 1.5263189449592822 -11.649797072199725 0 0 1
1104 1 -13.69265958615907 -0.9379835671885406 -11.745931643791112 0 0 0
1030 1 -10.384683521841001 1.3261626204481427 -13.459462265699212 0 0 0
340 1 -12.882250027496877 0.22512696046713288 -13.588511531397634 0 0 1
1201 1 -12.569872521160573 2.482647555382197 -12.859529103493605 0 0 0
1105 1 -11.055444684768826 2.622299182772128 -11.088548170109512 0 0 0
443 1 -8.311810754241552 0.15797385982903833 13.616024506177565 0 0 0
1124 1 -7.840887932649151 -1.1436793787091695 -9.831285593743367 0 0 0
1113 1 -7.4849533817865295 -2.437233111456653 -12.187731152415084 0 0 0
1126 1 -5.716483470551278 -2.15414650591201 -10.39233948907032 0 0 0
1112 1 -6.830809593594276 0.12092034536589757 -11.900996306110546 0 0 0
1114 1 -4.933418483585431 -1.013953136565723 -12.499413432839642 0 0 0
1213 1 -4.448315093773884 1.4252708932955258 -11.925277712822766 0 0 0
1226 1 -5.468313664050626 0.19082334721136895 -9.990474481869597 0 0 0
1224 1 -7.554350880065848 1.4369676554072282 -9.365693211266674 0 0 0
1127 1 -4.031822421440605 -1.9965975134115936 -8.404573359485047 0 0 0
1228 1 -3.3029286919375664 -0.8178809507300873 -10.524768953990828 0 0 0
318 1 -7.973425456509231 2.6824761322379267 -13.58815358526248 0 0 1
1349 1 -2.8238115511065516 1.6736813364517467 -10.217043552440298 0 0 0
1211 1 -6.510394706665154 2.5117905345841827 -11.480743580616965 0 0 0
1225 1 -4.919274359808949 2.59660808055391 -9.529882540936812 0 0 0
1116 1 -2.7574523591592826 -2.0386241708604604 -13.123362978649048 0 0 0
1354 1 2.491988010127079 -2.882982264417027 -10.216288891161463 0 0 0
1335 1 -2.3172460843634113 0.37373727808688884 -12.68854420010441 0 0 0
1215 1 -1.1392471621342892 -1.8457988617750498 -11.307413192268134 0 0 0
1353 1 1.2152160025366605 -0.5654212269762589 -11.623672732249256 0 0 0
1351 1 -0.8597392359385196 0.4866288835176924 -10.863850343536658 0 0 0
1336 1 0.11719781491507142 1.5804381329151092 -12.874674838615661 0 0 0
1229 1 0.3226122224792114 -1.7193097224401779 -9.443695693566992 0 0 0
1477 1 1.676694951524281 1.7880390798892396 -11.006600560506985 0 0 0
1352 1 0.8877916975557181 0.7817503080278954 -9.017667650641876 0 0 0
1227 1 -1.694881384441393 -0.535657777813265 -8.839998844888513 0 0 0
1337 1 -0.261239527240102 -0.7990013938364484 -13.509368746918804 0 0 0
1461 1 2.1992969257067774 0.5167627256324376 -13.752829184375031 0 0 0
1373 1 -1.2726742795989257 1.952928433127095 -8.262097005674306 0 0 0
1483 1 5.591272618675051 -2.719649786643636 -13.00182399714975 0 0 0
1504 1 2.7967151049878414 -0.46946866737113346 -9.716610686931364 0 0 0
1482 1 7.264519872306911 -2.4988604547504245 -11.078500411978307 0 0 0
1479 1 3.7414990460512225 0.7036371001012149 -11.760314482197902 0 0 0
1356 1 5.073027310268229 -1.437637270612937 -10.334659513668706 0 0 0
1338 1 3.398596304400611 -1.6520081876773283 -12.20192553825125 0 0 0
1481 1 5.835624198820414 -0.33411069494733603 -12.460477821216925 0 0 0
1480 1 5.349907270779118 0.9070638486452101 -9.717125026820735 0 0 0
1592 1 7.758192112746661 2.1294823937989236 -9.782116811740334 0 0 0
1506 1 6.6081426217959365 -1.3154580516087915 -8.47840701774579 0 0 0
1463 1 7.648533361399613 -0.2210999570926262 -10.513455432433268 0 0 0
1591 1 6.2159870259979275 1.897048775305631 -11.826671732070738 0 0 0
1478 1 3.178328469783617 1.915392953930077 -9.161720994042568 0 0 0
1595 1 8.244820417113134 -1.46811296697601 -13.173381802426515 0 0 0
1379 1 4.131142557718514 -2.6297791285526326 -8.26584051325445 0 0 0
1462 1 4.849843630539921 1.8545454237037262 13.721297353934302 0 0 -1
1108 1 13.921252231354382 2.4821767862557174 -8.58996143267289 -1 0 0
1593 1 8.423157776711642 0.8074835187508089 -12.660136316989059 0 0 0
979 1 13.380254383515782 -2.1299365342490155 -9.942456031928495 -1 0 0
1530 1 8.866613452888574 -2.3536600193525956 -9.211388795831844 0 0 0
1598 1 11.7843039182191 -2.341594525182524 -11.998160606644298 0 0 0
1596 1 9.779224066571276 -1.246256787423329 -11.220646647927534 0 0 0
1691 1 12.019372567963279 -0.033205837592669596 -11.182960638841028 0 0 0
1689 1 9.907914519643603 1.0197651981004956 -10.435314698527057 0 0 0
1693 1 12.850049542386534 1.2534070770568064 -12.978906857125136 0 0 0
1676 1 10.586700435121186 2.067702394981289 -12.388190365164174 0 0 0
1619 1 11.17793883378395 -1.1908708213143058 -9.305174275565236 0 0 0
1577 1 10.634649452704616 -0.1563699666496987 -13.251574773878275 0 0 0
1692 1 12.222512258519517 2.2835095958256098 -10.589347141012723 0 0 0
1710 1 13.587832807047606 0.1917630574742084 -9.245708918232301 0 0 0
1706 1 8.992363134832631 -0.018862300540131827 -8.540798664291362 0 0 0
1708 1 11.45187647713068 1.1184570505726938 -8.731060335879892 0 0 0
1597 1 10.331951146362362 -2.3590269687824375 13.661881717152498 0 0 -1
1210 1 -9.342866383818478 2.859659288719836 -9.21248092439105 0 0 0
1103 1 -13.230854737795937 3.7813547866249166 -10.539218011912475 0 0 0
1200 1 -12.802520684643579 5.8730953498498195 -9.84260678065207 0 0 0
1202 1 -10.694745898131663 4.897791465297786 -10.338084746026123 0 0 0
1329 1 -10.305868917696401 7.171427635631684 -9.65854805166473 0 0 0
228 1 -12.103768363575702 4.725640342400947 -12.311031015884078 0 0 1
1318 1 -12.006977305546899 7.160198304512317 -11.57375263159138 0 0 0
1320 1 -9.643350124772422 6.159032932233671 -12.398011726596309 0 0 0
219 1 -10.082728523728937 3.7003674180998765 -12.907723110328432 0 0 1
1197 1 -13.41716247819649 7.048127099085473 -13.492574880079522 0 0 0
1208 1 -11.582913678989222 3.7398537252825506 -8.528019260024417 0 0 0
1203 1 -8.634397261275359 3.872267454567762 -11.073058513953871 0 0 0
1223 1 -9.159561503618253 4.917699190431417 -8.166240297239924 0 0 0
110 1 -10.946368826391785 8.14492675241058 -13.584414708286301 0 0 1
1319 1 -9.451899416379312 8.291439313048972 -11.644810773402732 0 0 0
1209 1 -8.197601735690958 6.08514006836716 -10.226137104623492 0 0 0
1333 1 -4.060848432493806 3.863575004942085 -11.559646885102037 0 0 0
1321 1 -7.2536593272026915 7.129414079747033 -12.330111234285749 0 0 0
1322 1 -5.2252274863479045 5.9245262902680444 -13.097870973310972 0 0 0
1331 1 -6.0869978403849405 5.072856015880745 -10.967937165638663 0 0 0
1455 1 -3.5804200020529073 6.257806453226333 -11.156328270783206 0 0 0
1454 1 -5.698556949232181 7.403722775534472 -10.449062009043653 0 0 0
1332 1 -4.6262276306488666 5.063884356667913 -8.99353767771888 0 0 0
1347 1 -7.035805450955863 3.865473332930179 -8.952621671386698 0 0 0
1204 1 -5.59785390001592 3.7097036664199656 -13.490015734658934 0 0 0
1472 1 -4.155477108153946 7.4820562270168836 -8.564338347994905 0 0 0
317 1 -7.702431689206873 4.9279781568024035 -12.984865759781082 0 0 1
1330 1 -6.663957359740887 6.221979134114207 -8.337329396153262 0 0 0
1323 1 -3.097897229418294 5.019744809394631 -13.64172805497229 0 0 0
1334 1 -1.8812398072003162 2.7766762288212803 -12.297870961491043 0 0 0
1445 1 -2.8125955500051045 7.281293078977061 -13.178263406723785 0 0 0
1350 1 -0.30252837897516294 2.88018263793343 -10.485609016196847 0 0 0
1348 1 -2.52909884207949 4.015057095261675 -9.761017734574608 0 0 0
1473 1 -1.9989555370456387 6.427002978310654 -9.29768101510389 0 0 0
1457 1 -1.5602014930241879 5.1942966038112495 -11.790632708905388 0 0 0
1571 1 1.0927011873141748 6.588387566411214 -11.872776999301092 0 0 0
1587 1 0.06104931888864229 5.327968826429618 -9.98216544544173 0 0 0
1458 1 0.6914576135668451 4.239535197063088 -12.341279126006938 0 0 0
1476 1 2.123300482252075 4.166210259259259 -10.418677044187174 0 0 0
1456 1 -1.1610421121782775 7.786271390193601 -11.434530680168288 0 0 0
1570 1 0.42582763592777617 7.766908556903278 -9.53026879841581 0 0 0
1572 1 2.6708035404132016 6.796219975979305 -10.122548844092291 0 0 0
1502 1 1.0610430330334424 3.0599073925609233 -8.420153805188155 0 0 0
1460 1 2.6459607593809746 2.8911990734803226 -13.078539581026533 0 0 0
1573 1 3.172973907587105 5.094108385272367 -12.11561548213748 0 0 0
1589 1 4.212232990928575 2.8904470949662766 -11.121388271899932 0 0 0
1574 1 4.591114829428067 5.1923899233562025 -10.124152451767856 0 0 0
1576 1 5.187044016711107 4.027784790538696 -12.8925266632503 0 0 0
1674 1 6.712492299800099 4.056196366952491 -10.912773942317068 0 0 0
1686 1 6.782773558554398 5.985859749158301 -9.420515851285256 0 0 0
1761 1 7.522974241022014 7.379508951633056 -11.656407835338657 0 0 0
1673 1 5.3275577559237615 6.235467845646223 -11.924174099283531 0 0 0
1751 1 7.344214041762671 5.235434415377423 -12.671734133931373 0 0 0
1687 1 5.662245381076749 3.1279125172380056 -9.157302292508106 0 0 0
1671 1 3.671209943171883 8.060661293807858 -12.254461940869128 0 0 0
1588 1 4.373864007255216 6.73879068895387 -8.254090109174129 0 0 0
1672 1 5.185021276113984 7.971762007796688 -10.363368117685395 0 0 0
1612 1 3.503466958553778 4.080940190891184 -8.520870067875162 0 0 0
509 1 3.6841484534368245 6.338320243309454 13.782252346642176 0 0 0
1749 1 5.889453639938155 7.392335777170594 -13.738374056089643 0 0 0
1325 1 13.90618593044949 8.040354060467621 -10.6676784931554 -1 0 0
1688 1 8.82586546616544 5.219472626826608 -10.557752160512067 0 0 0
1198 1 13.44948525614822 5.865757943355298 -11.685464582431452 -1 0 0
1675 1 8.629924941062574 3.0655072585347085 -11.787202347583634 0 0 0
1690 1 10.186635578925324 3.4078955812927454 -9.938838542643932 0 0 0
1763 1 9.578652798906413 6.422309179175965 -12.616012368770146 0 0 0
1765 1 11.0085490127269 4.58739811742792 -11.861135148643614 0 0 0
1762 1 11.27032202367928 6.6182316507776875 -10.641215994062003 0 0 0
1760 1 9.307415756449432 7.414918830381627 -9.725048664347536 0 0 0
1764 1 12.638365089355142 4.60050623390282 -9.787062942246447 0 0 0
1199 1 13.28878350874493 3.5118884546528655 -12.372736317394333 -1 0 0
1816 1 12.22752655057167 7.799310066797009 -12.56370584453527 0 0 0
1824 1 12.899589429397713 6.663763118776679 -8.6370474099513 0 0 0
597 1 12.096420368428538 5.6482634045542355 -13.577319407245891 0 0 1
1776 1 10.149929545392856 5.305902322024313 -8.33528645940148 0 0 0
605 1 9.476493868090492 4.302950688585366 -13.6303318777391 0 0 1
1327 1 -12.545671136212588 8.068786712715468 -8.926200627824098 0 0 0
1316 1 -13.160847975971382 9.257344566237837 -12.79329584724307 0 0 0
1317 1 -11.59837747970218 9.311864522830113 -10.934343257946834 0 0 0
1439 1 -10.664417369454437 10.493523088535198 -12.960482753014501 0 0 0
1440 1 -9.079784611226852 10.664005602262986 -11.103335732140065 0 0 0
1842 1 -12.847405093482902 11.553737423931576 -12.276066711708028 1 0 0
1447 1 -11.232757839604133 11.61429443659026 -10.332104635392788 0 0 0
1438 1 -10.320478555100262 12.877640465637509 -12.304856356761125 0 0 0
1324 1 -13.41613391215065 12.678123889100906 -9.629091975507734 0 0 0
1451 1 -10.009652239270267 9.522628853058183 -9.048037013241762 0 0 0
1450 1 -9.653856062733105 11.864981842057919 -8.365865597761516 0 0 0
1563 1 -8.751342506216794 12.98968914217733 -10.46114052110305 0 0 0
1315 1 -13.71237503882567 10.418953959400348 -10.173498026349497 0 0 0
1441 1 -8.512927789548169 9.517767875593027 -13.674757657895963 0 0 0
1449 1 -12.255222254335967 10.421014233025158 -8.29932694994816 0 0 0
1556 1 -8.24087698544779 11.885962609002348 -13.11114868515835 0 0 0
1453 1 -7.950582047407931 8.428077460775526 -9.777722352258351 0 0 0
1444 1 -4.874148851109435 8.4252986744287 -12.575092615447895 0 0 0
1442 1 -7.0687404972041925 9.491533097305659 -11.737386253425948 0 0 0
1557 1 -5.74939255481682 13.19310607287239 -13.404315402831774 0 0 0
1567 1 -4.408150953697783 10.808771886646579 -11.953673808870873 0 0 0
1565 1 -6.616343939615596 11.994800422190242 -11.227404025489175 0 0 0
1566 1 -4.9057391090343945 12.183749030145115 -9.475694271317654 0 0 0
1583 1 -5.494186977986484 9.860954045937188 -9.918144921415541 0 0 0
1452 1 -7.618303711699048 10.789749266541097 -9.138634925577747 0 0 0
998 1 -4.006682445897498 13.193735416046241 -11.56433153919414 0 -1 0
1564 1 -7.083452131649969 13.207564124587947 -8.80018511734323 0 0 0
1569 1 -3.302907736002341 8.742096445513411 -10.588184431432175 0 0 0
1568 1 -2.775638423023917 11.132332128685594 -10.155852987228016 0 0 0
1584 1 -3.7690743192056644 9.88115851985442 -8.26856315923155 0 0 0
999 1 -2.5186138011317762 13.431002481267921 -9.685273783077427 0 -1 0
1559 1 -2.3101618416457033 9.799048018302333 -12.682858060501527 0 0 0
1743 1 -0.26969185182563926 12.365699108219872 -10.387830479284025 0 0 0
1659 1 -1.9003036942622131 12.226558064374657 -12.2571496293567 0 0 0
1667 1 -0.6131659718532525 10.000907303671351 -10.904351835265867 0 0 0
1661 1 0.31009651649676506 11.127525321672202 -12.955524865147973 0 0 0
1669 1 1.5755393603505947 8.887266087394842 -11.519708591098535 0 0 0
1745 1 1.9012255061695775 11.2436689299469 -11.112936657525918 0 0 0
1668 1 0.9780337027039661 10.058826209751835 -9.10302402787987 0 0 0
1585 1 -1.6225735596099682 8.81360316461221 -8.776058418045702 0 0 0
1561 1 -0.10071395038159814 8.828548497272088 -13.513713861158905 0 0 0
1744 1 1.2808481361403743 12.444487003520926 -8.630049921515326 0 0 0
1057 1 0.5161638724008935 13.51221683202262 -12.599625432906155 0 -1 0
1681 1 -1.173186922213679 11.037195056267887 -8.406973816376336 0 0 0
1662 1 2.5206763391056857 10.155193606714619 -13.675493062017543 0 0 0
1058 1 2.12159851675988 13.680396917644963 -10.668668173824592 0 -1 0
1741 1 2.798651505172037 12.368095386751538 -13.199963427693959 0 0 0
1759 1 7.023729292616762 8.329851151309885 -8.875384977101703 0 0 0
1670 1 3.204853598396644 9.08431791063111 -9.78210513032149 0 0 0
1746 1 5.593011785259636 10.434089757990705 -10.041188884131254 0 0 0
1747 1 4.0423951748616656 10.42006761923578 -11.86228380946139 0 0 0
1803 1 6.567561114088546 11.698934318534079 -12.23504727052253 0 0 0
1748 1 6.015248662182044 9.325523446465901 -12.574258837800574 0 0 0
1801 1 4.380409403815689 12.715786454860304 -11.351643287053676 0 0 0
1810 1 6.067987816735291 12.912765187209157 -9.591170206240445 0 0 0
1757 1 3.43644451360238 11.595683480372962 -9.32840684915811 0 0 0
1811 1 7.782767993549248 9.732414062084388 -10.872961829071947 0 0 0
1804 1 8.308891420150259 11.974608898021508 -10.43646313248712 0 0 0
1820 1 7.351099471614939 10.754724430134953 -8.298175041772495 0 0 0
1809 1 3.870336181200498 13.951151651866702 -8.921040337968716 0 0 0
1240 1 13.922837726953071 13.56916401519944 -13.554393797045346 0 -1 0
1750 1 8.44974154191211 8.574847844700436 -13.65280049530874 0 0 0
1813 1 10.084248002197482 8.660148914704507 -11.78841485538118 0 0 0
1805 1 8.831238006787077 10.865337783397539 -12.979515484293659 0 0 0
1159 1 9.244574130645061 13.161626141638717 -12.443615433427391 0 -1 0
1265 1 13.005645232949751 12.48215663746505 -11.490531636829095 0 -1 0
1806 1 11.463082412769735 12.238914267182803 -13.271022536053781 0 0 0
1848 1 12.685115022608718 10.073821186172687 -11.869767065318987 0 0 0
1814 1 10.464627804011917 10.998736478854518 -11.239837043600655 0 0 0
1853 1 11.664115639618855 8.967811963175574 -9.885264674168601 0 0 0
1851 1 12.205822560612523 11.25578600759211 -9.342762380877861 0 0 0
1812 1 9.559959369566611 9.815151971880447 -9.298761478519891 0 0 0
1846 1 10.837591820234346 13.426432977205891 -10.723852628265455 0 0 0
1847 1 12.414218749855864 13.595936082357163 -8.996469338313533 0 0 0
1845 1 9.912306030763423 12.14879488945057 -8.600515775399487 0 0 0
935 1 -12.405588550526673 13.852036135159548 -11.545683371033832 0 -1 0
936 1 -10.776137556943286 13.973232413989962 -9.802805612256586 0 -1 0
1802 1 7.01430930554835 -14.120246358379672 -11.849631237893043 0 1 0
1158 1 5.309389551053604 13.717368424098321 -13.598537845191334 0 -1 0
994 1 -11.031400039168162 -10.626780502519317 -6.847846462749644 0 0 0
934 1 -13.523109687121051 -11.991173559186704 -6.648711535524211 0 0 0
960 1 -11.405365731945938 -13.102079817353165 -7.185924364447172 0 0 0
961 1 -11.949832469492666 -11.86631723798169 -4.808143979400144 0 0 0
969 1 -11.452950183026042 -9.608269175856815 -4.362512651682007 0 0 0
1023 1 -9.305029416324427 -10.425341512573246 -4.889850522737534 0 0 0
963 1 -9.790540462429396 -12.915776071804864 -5.547728073115723 0 0 0
992 1 -13.15404734022279 -9.825752755126821 -6.1188788897907855 0 0 0
942 1 -10.26890137687825 -11.711200944659472 -3.056805278123301 0 0 0
956 1 -8.846721755018828 -11.564856230862258 -7.612030270930627 0 0 0
941 1 -12.88945535661108 -13.091508996816737 -2.8027499758518797 0 0 0
1551 1 -13.686791973003197 -8.727343892419707 -3.5078387567542446 1 0 0
962 1 -9.192194038662794 -14.117054743732414 -7.834282554494591 0 0 0
1016 1 -8.50910596891983 -9.279560270536606 -6.980435950119979 0 0 0
983 1 -12.31927063448752 -8.584318231837617 -8.067187476509265 0 0 0
970 1 -10.57468520773605 14.128846320381633 -3.6028190044783397 0 -1 0
1052 1 -3.803680961391322 -8.841430561379443 -8.159961273413035 0 0 0
1007 1 -6.450545452787312 -10.336565128813035 -7.740219508183087 0 0 0
1008 1 -5.1603933018342065 -12.488790826953196 -6.374013707863818 0 0 0
1068 1 -4.696179720781206 -10.14623319823345 -6.05105535619828 0 0 0
1018 1 -7.26814651558307 -11.634753071093105 -5.682782365341627 0 0 0
972 1 -8.097936091573015 -12.665253509832958 -3.7867014907513497 0 0 0
1017 1 -5.640386780486706 -11.358141044986954 -4.026351831846746 0 0 0
1694 1 -5.8952833295481675 -13.726777859294762 -4.426924694652811 0 1 0
1015 1 -6.873704012854993 -9.101943978717998 -5.2569307140381465 0 0 0
975 1 -7.6163531099366075 -10.36622166244021 -3.2382353379875806 0 0 0
1019 1 -3.360492580247243 -12.322877802081571 -4.644278684399001 0 0 0
1092 1 -5.286084095790223 -9.05077453636911 -3.400663250938454 0 0 0
965 1 -7.511131281402013 -14.040148972788446 -6.136068223610761 0 0 0
1084 1 -3.11360155146275 -9.911208899164599 -4.133796150918508 0 0 0
1010 1 -2.8254221361436347 -13.572703593515156 -7.165861409872504 0 0 0
1056 1 1.7098953200879468 -13.3102679448733 -8.316938531176486 0 0 0
1073 1 2.11784037894129 -10.922350698472536 -7.903689637409799 0 0 0
1071 1 -0.36709143306335434 -12.219919046856548 -7.512726402573166 0 0 0
1152 1 0.07626311081121351 -9.794335958296799 -7.01104047047217 0 0 0
1070 1 -2.5608131232419673 -11.062869548931626 -6.7928424609321985 0 0 0
1085 1 -1.2126140751885561 -13.440921892176528 -5.368107345066537 0 0 0
1086 1 -0.979789480788229 -10.983736399752932 -5.035166191332019 0 0 0
1754 1 0.2918911809758704 -13.21751761841883 -3.544986335827515 0 1 0
1188 1 1.5405751522347053 -9.643824546008576 -5.204034538840325 0 0 0
1174 1 1.2285610321760387 -11.966478381958957 -5.623346426950921 0 0 0