LAMMPS data file via write_data, version 23 Jun 2022, timestep = 0

1864 atoms
3 atom types

-13.756992312210231 13.756992312210231 xlo xhi
-14.211447273747918 14.211447273747918 ylo yhi
-14.012159239732684 14.012159239732684 zlo zhi

Masses

1 55.847
2 1.008
3 1.008

Atoms # atomic

131 1 -12.889422798774723 -13.351050590295218 -13.356862599975301 0 0 0
130 1 -11.258984720365191 -14.036634791559482 -11.623774021942321 0 0 0
121 1 -10.04013683989833 -12.893812444424471 -13.351234028410563 0 0 0
122 1 -8.503926848246094 -13.524233049658003 -11.464288904976314 0 0 0
112 1 -7.160557016063337 -12.244308455099329 -13.322413682070017 0 0 0
100 1 -4.423858468499251 -11.802375796943004 -13.331112119041816 0 0 0
111 1 -5.622313342434202 -13.216539540128792 -11.48419296957299 0 0 0
77 1 -2.8829755033295026 -12.68351003964079 -11.719849289364905 0 0 0
20 1 -7.988457045423064 -1.3970202897835335 -0.03543428960527528 0 0 0
181 1 -11.673310617435673 -11.442801301581925 -12.361603984212909 0 0 0
180 1 -13.474785725963866 -9.899515207963804 -11.409145711779871 0 0 0
171 1 -10.654481001725912 -9.37853884214735 -11.443844146737773 0 0 0
439 1 -12.088666781242575 -8.46720296028857 -13.196036240644675 0 0 1
170 1 -8.834321317348628 -10.894552959329852 -12.388193157155483 0 0 0
159 1 -7.695866798744307 -8.839867803393151 -11.278454819626852 0 0 0
160 1 -6.021847299189951 -10.334191007077706 -12.140927269121974 0 0 0
99 1 -1.393984633680402 -11.339954782691954 -13.364015925300489 0 0 0
150 1 -3.1742806700217976 -9.99215617891118 -12.14484699612646 0 0 0
1015 1 -0.2862092587898104 -9.494634950844238 -12.164200204085562 0 0 0
73 1 -0.16218675627795953 -13.593653479785983 -5.272490160870522 0 0 0
223 1 -11.049799588096054 -6.518588762080439 -12.10780430403974 0 0 0
966 1 -0.08348389496414121 -1.9812851238252378 -12.682960408206315 0 0 0
51 1 -9.17184084928766 -0.0031150653325013877 -10.81528810408997 0 0 0
222 1 -9.20357080230859 -8.132547833311488 -12.992887531541049 0 0 0
211 1 -8.210324272422381 -6.077484161949778 -12.095841146755081 0 0 0
149 1 -4.907421102351671 -8.511384392847013 -11.346917741653398 0 0 0
212 1 -6.367693234289846 -7.625047584617079 -13.036324687035842 0 0 0
203 1 -3.591809277276239 -7.266407097120961 -13.02385758846068 0 0 0
1012 1 -0.7397151482679618 -6.653805287058655 -13.015660938783599 0 0 0
140 1 -2.185624690639644 -8.059231306683603 -11.182352626814282 0 0 0
38 1 -11.392929885162967 -3.829691386445184 -12.928492335033742 0 0 0
213 1 -9.563109336937977 -5.254510074479416 -13.869835958550105 0 0 0
29 1 -8.53031846397224 -3.3781819685259187 -12.892625760989864 0 0 0
202 1 -5.374320753609167 -5.682341051746109 -12.009449355426424 0 0 0
325 1 -6.7157211864694 -4.889735730687642 -13.899695230187204 0 0 1
19 1 -5.653409314144417 -2.975254125739111 -12.801148437089871 0 0 0
192 1 -3.989283679962977 -4.449266608627902 -13.752757906372585 0 0 0
191 1 -2.5085366209896574 -5.302821491657783 -11.919894605256564 0 0 0
17 1 -1.1718406222231827 -3.9823436239918593 -13.708590802132882 0 0 0
61 1 -13.132108040269546 -2.4486468423106302 -11.909639067276867 0 0 0
387 1 -11.728938449266103 -1.1202175719320255 -13.71565300362986 0 0 1
28 1 -10.191734741441984 -1.8846963384499453 -11.954145674555622 0 0 0
53 1 -8.909270299881936 -0.5707817800308455 -13.554037756080367 0 0 0
18 1 -7.4503202890927955 -1.399608886843417 -11.728589200824501 0 0 0
7 1 -4.6361144834130545 -1.061321345536479 -11.717763260829052 0 0 0
49 1 -5.976959359044307 -0.18913247505113873 -13.453718318816934 0 0 0
6 1 -2.922458771937098 -2.520068323338979 -12.79313846933295 0 0 0
8 1 -1.8080873017891683 -0.5154973706190802 -11.811472783944444 0 0 0
185 1 -13.07086025834862 -12.628154573949217 -10.744263961316832 0 0 0
129 1 -11.621519057708978 -13.358754494048378 -8.893565034271624 0 0 0
119 1 -10.304684723131809 -12.036473808745303 -10.67247340096487 0 0 0
118 1 -8.681247570038256 -12.952623290025581 -8.886286026222733 0 0 0
110 1 -7.344817858979407 -11.528374520606848 -10.548604996435488 0 0 0
698 1 -4.075998133584829 -14.02978164996405 -9.866306734791326 0 1 0
109 1 -5.861995729786784 -12.560886320428898 -8.890527943635286 0 0 0
76 1 -1.4905351219868432 -13.412251300964208 -9.861335819925973 0 0 0
97 1 -2.969409147584196 -11.879565841407775 -8.77507440505396 0 0 0
945 1 -0.27690844893769473 -11.634659918934426 -8.67626461000383 0 0 0
179 1 -12.031327991876314 -10.55051775789418 -9.60773967890593 0 0 0
169 1 -10.950100320945966 -8.670546100569268 -8.618286870784054 0 0 0
957 1 -0.11198355060245824 -5.343470385801641 -3.0023411891803207 0 0 0
168 1 -9.056225153662966 -10.192187373484483 -9.671587634231834 0 0 0
98 1 -4.525715665377147 -11.24975430292013 -10.49932421856315 0 0 0
158 1 -6.27661779893968 -9.732671019225194 -9.548686394632773 0 0 0
148 1 -3.423756718019458 -9.216264493619725 -9.491211879455337 0 0 0
90 1 -1.7290426363010454 -10.751216011735792 -10.602565352750682 0 0 0
959 1 -0.5925009687023373 -8.757989387874616 -9.503268992606863 0 0 0
232 1 -12.417375211709954 -7.868342753257317 -10.384512221161199 0 0 0
221 1 -11.348103193506764 -5.9890297093139 -9.306352317619144 0 0 0
220 1 -9.574138114146612 -7.410656555444028 -10.38413933429542 0 0 0
157 1 -7.9166844938286065 -8.140645463921498 -8.637047420023652 0 0 0
210 1 -6.674248949697701 -7.003712095469741 -10.334240189691442 0 0 0
201 1 -3.7619470958816876 -6.6360474196435515 -10.201555672232342 0 0 0
147 1 -5.160623981916009 -7.699141667819437 -8.511620927281605 0 0 0
1010 1 -0.9987710736899658 -5.9576272099515535 -10.154805511971833 0 0 0
46 1 -12.753667370562532 -5.0177265956045485 -11.171833527837673 0 0 0
37 1 -11.654317268582362 -3.1688341634316917 -10.099725802197199 0 0 0
27 1 -7.1190696779115 -4.26647887684172 -11.167043522967747 0 0 0
36 1 -9.890233696999628 -4.634223076816728 -11.197980447352547 0 0 0
209 1 -8.392909654943745 -5.341016064090571 -9.243098960925753 0 0 0
16 1 -4.242183060825893 -3.7613581424353804 -11.030954690990388 0 0 0
200 1 -5.55197527414157 -4.967679895247949 -9.353737147648523 0 0 0
1118 1 -1.3705750793287894 -3.224139623261255 -11.100371043987185 0 0 0
190 1 -2.6359626670918495 -4.354029646800386 -9.231302240324702 0 0 0
52 1 -11.962065526734452 -0.4552970077796399 -10.987984039132382 0 0 0
60 1 -13.438349041857194 -1.666361121676367 -9.125555011906766 0 0 0
59 1 -10.500094843449952 -1.2492079289483407 -9.177321815029849 0 0 0
26 1 -8.794962253148999 -2.743127860809187 -10.090301384152662 0 0 0
50 1 -7.803498594011632 -0.8364164305457464 -8.937830372395489 0 0 0
15 1 -6.066990030650328 -2.3827421844320433 -10.030256452482138 0 0 0
484 1 -4.993841039791262 -0.29854860484405243 -8.974677740267587 0 0 0
5 1 -3.2696934251376515 -1.808805137537819 -9.971158865434482 0 0 0
103 1 -0.24377103789075427 -1.3488869087392406 -9.972500804687364 0 0 0
184 1 -13.317642708459543 -11.813247021757334 -7.954462671386339 0 0 0
127 1 -11.661975562290044 -12.616330909872946 -6.245223554127925 0 0 0
177 1 -10.3471195918167 -11.365038123842606 -7.908095376844842 0 0 0
1368 1 -0.5972445663082357 -1.9325095201591242 -1.0725530207422924 0 0 0
83 1 -7.23676617724805 -13.788461845696208 -7.317507334355486 0 0 0
86 1 -8.872039432543005 -12.231529316730922 -6.244499661926265 0 0 0
82 1 -4.400023912558323 -13.281213513205355 -7.119846047679425 0 0 0
107 1 -6.132648338247657 -11.82819894268789 -6.139181481001822 0 0 0
74 1 -1.6180749940345684 -12.81542568031848 -6.9809580871304275 0 0 0
183 1 -12.1587342989279 -9.912984524670689 -6.870411825885625 0 0 0
108 1 -7.597835955215325 -10.996279181677288 -7.92259479503525 0 0 0
166 1 -9.19249193276381 -9.397779726970604 -6.963439513445669 0 0 0
156 1 -6.4204413725293925 -9.002744138914895 -6.755795657959117 0 0 0
96 1 -4.905753011047505 -10.538618172018824 -7.786003113238512 0 0 0
197 1 -3.6866484675372835 -8.588261743200732 -6.726048524892743 0 0 0
95 1 -3.357439557002696 -11.236566122919895 -6.029878724466119 0 0 0
953 1 -0.5446641451189436 -10.76242539954056 -5.996125591233239 0 0 0
89 1 -1.9185650030371662 -10.040774687758638 -7.784412803589316 0 0 0
230 1 -12.673306499184505 -7.225864472422463 -7.614803362367165 0 0 0
228 1 -11.18426619241508 -7.8899303605614035 -6.003157612283211 0 0 0
219 1 -9.700962404544278 -6.709176029689081 -7.746950287677366 0 0 0
167 1 -8.263233759517039 -7.46626512931233 -5.927010007968645 0 0 0
208 1 -6.984366181738768 -6.306052733140013 -7.6227174714582855 0 0 0
154 1 -5.526386827852292 -6.993900172893885 -5.677885590566264 0 0 0
199 1 -4.174036979621816 -5.835025765836914 -7.591458158012698 0 0 0
139 1 -2.2549328853055943 -7.273558524624214 -8.394317993132924 0 0 0
958 1 -0.9320352178653675 -8.03628263156898 -6.655412894338075 0 0 0
144 1 -2.707363427963795 -6.4615789174142355 -5.818173647949198 0 0 0
45 1 -12.960016810031073 -4.394221058366815 -8.29420797603412 0 0 0
44 1 -11.454268992361524 -5.21363171575938 -6.441664306651043 0 0 0
35 1 -10.213976397819586 -4.067565521708959 -8.362046875228673 0 0 0
25 1 -7.31644424257455 -3.446329461972839 -8.349394792684807 0 0 0
34 1 -8.721688075533926 -4.703316210306815 -6.605522293263528 0 0 0
14 1 -4.590696370601808 -3.0158679475780854 -8.19815649510793 0 0 0
198 1 -5.945613731355016 -4.315335581563476 -6.624604103164382 0 0 0
1133 1 -0.25148042951044225 -3.3529581910741673 -6.505682250887682 0 0 0
188 1 -3.0032760906176055 -3.8190020407787255 -6.490988606397281 0 0 0
189 1 -1.2356905343190707 -5.2211514895102304 -7.466996257047671 0 0 0
9 1 -3.6845038405003105 -2.526984251766091 -0.8342851593701113 0 0 0
58 1 -11.801435352739539 -2.4830386626189807 -7.393555565815638 0 0 0
56 1 -10.740668648951301 -0.5352756027774781 -6.198780442928078 0 0 0
187 1 -2.178834868906497 -1.1530880836100224 -2.6336694387374777 0 0 0
57 1 -9.044673990374157 -1.973469187917928 -7.364976465780301 0 0 0
13 1 -6.265576716782105 -1.5511214189113485 -7.162501549950951 0 0 0
3 1 -3.4061377759013727 -1.176857364758785 -7.228737579951661 0 0 0
4 1 -1.5828344423094673 -2.552094508569274 -8.269681448389177 0 0 0
659 1 -0.5620915567794107 -0.649877256874337 -7.074814870127451 0 0 0
125 1 -11.948237357290864 -11.955802605762795 -3.569269271129473 0 0 0
657 1 -13.098279666654568 -13.846090561790728 -4.586850572941115 0 1 0
135 1 -10.315832160118019 -13.626696687654155 -4.488566771191131 0 0 0
116 1 -7.611245830364846 -13.011656475288179 -4.4540689568771015 0 0 0
115 1 -9.304034101982882 -11.63424023387896 -3.482807884145993 0 0 0
81 1 -4.840061838495542 -12.485034734044309 -4.383172831843405 0 0 0
409 1 -12.412501560914063 -5.744633100310672 -13.949600969179908 0 0 1
689 1 -3.0424785877761877 -13.9498894559919 -5.3657302759707495 0 1 0
72 1 -1.893149337591721 -11.99698799738016 -4.470203072099444 0 0 0
174 1 -12.309787506132153 -9.192277474929401 -4.065025690089037 0 0 0
175 1 -10.533018382578728 -10.723385974918344 -5.411108704475003 0 0 0
134 1 -13.553842253213809 -11.154462672246517 -5.19379379771739 0 0 0
117 1 -7.87704403176241 -10.333634704653154 -5.131168355103226 0 0 0
165 1 -9.66669500193532 -8.711770078840948 -4.260485101695686 0 0 0
620 1 -6.442134740569951 -10.979689036536183 -3.255516447420515 0 1 0
106 1 -5.11330075610833 -9.85717765917417 -4.940970357507554 0 0 0
105 1 -3.5505929512312093 -10.630965512722138 -3.233225899699306 0 0 0
146 1 -2.226476059437056 -9.291361532237836 -4.940435104124299 0 0 0
93 1 -0.6902192708214407 -10.057013317069494 -3.2502652535329624 0 0 0
227 1 -12.799730007598559 -6.559444782024917 -4.61022950745256 0 0 0
226 1 -11.394212277231803 -7.282218368328227 -3.1010702538416464 0 0 0
217 1 -9.986218570615307 -6.043913807859466 -4.978686353885827 0 0 0
216 1 -8.425655148665044 -6.8021552139572234 -3.102178303287051 0 0 0
218 1 -6.87969624340232 -8.258992903731027 -4.018132680238288 0 0 0
94 1 -3.988172692487689 -7.901902176951132 -4.044629142483997 0 0 0
155 1 -5.692179072184139 -6.330060013436601 -2.9986595372099885 0 0 0
92 1 -1.110266642826117 -7.353154777425018 -4.0507961599836655 0 0 0
195 1 -2.9356740590232597 -5.941107591100723 -3.007056820112483 0 0 0
65 1 -13.228880034310867 -3.7365709672660348 -5.564085252776808 0 0 0
42 1 -11.745278116335399 -4.508676228829103 -3.8197659208926726 0 0 0
41 1 -13.472504426603217 -2.9568537546059517 -2.920855866910035 0 0 0
33 1 -10.431032326444878 -3.2226179099635495 -5.610879714784099 0 0 0
207 1 -7.222170218103673 -5.5976522708657015 -4.897515440039397 0 0 0
32 1 -8.920176970661469 -4.022231200476124 -3.9140857726028706 0 0 0
24 1 -7.606456062122282 -2.952588864145625 -5.479305911927693 0 0 0
145 1 -4.296603517236639 -5.0195178888952245 -4.787608531062556 0 0 0
23 1 -6.204581691797039 -3.6118586251553975 -3.7657342807343 0 0 0
196 1 -3.208330105693861 -3.080417928490812 -3.797873385631908 0 0 0
137 1 -1.6508536304266812 -4.594355108797787 -4.7867892342414535 0 0 0
489 1 -6.652607800914527 -0.14025634406454834 -1.786547065073174 0 0 0
64 1 -12.090039697712099 -1.8609905196330097 -4.651830312372455 0 0 0
55 1 -9.292814848026818 -1.3213633873721573 -4.5824813475037 0 0 0
22 1 -7.760306826205471 -2.050989376713332 -2.8516315059206576 0 0 0
12 1 -4.784568738767847 -2.505864763587928 -5.478059800440059 0 0 0
472 1 -3.7561772624330345 -0.39084526126583263 -4.498079144667175 0 0 0
11 1 -6.441963099136659 -0.8930338806069749 -4.501353887898343 0 0 0
336 1 -5.00370824363999 -1.6437350354828144 -2.7506553929151014 0 0 0
2 1 -1.8015728964001099 -1.9051358683486512 -5.383248243909058 0 0 0
960 1 -0.37108423068557883 -2.743147933574571 -3.6926362836664968 0 0 0
1137 1 -13.46844406231973 -13.289052678030684 -1.805340458382858 1 0 0
627 1 -10.483855035635578 -12.808911422708935 -1.7709986176125714 0 1 0
114 1 -7.887441036004217 -12.048096760998481 -1.6369239556959236 0 0 0
593 1 -6.179997970583156 -13.818951538284457 -2.6227883345959455 0 1 0
79 1 -4.904002932567019 -11.764654399493853 -1.5718749508652365 0 0 0
78 1 -1.740881903729779 -14.094753220030853 -0.8403766074361005 0 0 0
80 1 -3.2317956395182055 -13.242223106499338 -2.569527184978787 0 0 0
71 1 -0.39308058403401525 -12.782189328284328 -2.625265714247961 0 0 0
70 1 -2.052262939942178 -11.425042038514583 -1.5350359394434339 0 0 0
133 1 -12.206617880282932 -11.393380973612398 -0.6680244720134709 0 0 0
173 1 -10.975187742642303 -9.87483634855846 -2.4171153800159413 0 0 0
233 1 -12.80217566142765 -8.460794884299592 -1.3239522404669533 0 0 0
164 1 -8.241913155972023 -9.637943061051178 -2.285786325391477 0 0 0
123 1 -9.548999764061099 -10.771419800230536 -0.6099890586313794 0 0 0
113 1 -6.622742337781979 -10.383692739074135 -0.5245699008610476 0 0 0
101 1 -3.7947031417270747 -9.892264916998236 -0.45465846170370483 0 0 0
104 1 -5.325778472516381 -9.149547139608181 -2.267030478063729 0 0 0
91 1 -0.9261529002457909 -9.424794908839175 -0.5295202424368917 0 0 0
152 1 -2.407055101702035 -8.634785316740846 -2.2543285618309827 0 0 0
224 1 -11.497092347677153 -6.522995091999246 -0.39663958454872983 0 0 0
225 1 -13.100186342441537 -5.767185705754516 -2.031925012354 0 0 0
163 1 -9.986303855524607 -8.040663460645426 -1.334318622259202 0 0 0
410 1 -8.708145438875007 -6.152924179593837 -0.3170487436966791 0 0 0
153 1 -7.128931885881831 -7.777121906856122 -1.3317902272751567 0 0 0
206 1 -4.325986710524353 -7.186961749235477 -1.29279790936903 0 0 0
143 1 -1.3721573983251343 -6.700051825330359 -1.335250699005881 0 0 0
420 1 -11.933973877905917 -3.8916270040339516 -1.1886198185775996 0 0 0
215 1 -10.189441743986874 -5.292767592779615 -2.199269864593129 0 0 0
30 1 -9.148088153601993 -3.3511308113507177 -1.2258721280373237 0 0 0
205 1 -7.419204004104949 -4.890891672231824 -2.1506023786225974 0 0 0
214 1 -5.953429150860649 -5.756504798600815 -0.34366315943762515 0 0 0
204 1 -4.504325624107796 -4.232662862313163 -2.0630045774338424 0 0 0
21 1 -6.305711112269839 -3.0129263269227184 -0.8876574652741471 0 0 0
961 1 -0.36524990313518657 -4.712356772345579 -0.28147255574163665 0 0 0
326 1 -3.1713753525150565 -5.227001773662478 -0.3550748899021503 0 0 0
186 1 -1.9041448545701076 -3.835075500682551 -1.9097368193108153 0 0 0
537 1 -13.673664465583757 -1.010958107512792 -6.277320776094458 0 0 0
31 1 -10.662794205841157 -2.447527311081579 -2.8493149402787434 0 0 0
535 1 -12.30659860355812 -1.1649009437642182 -1.6619058889861869 0 0 0
69 1 -1.1501228070735792 -14.039335478074253 -12.735413293903 0 0 0
54 1 -9.552199400183639 -0.600791758339323 -1.741906015651356 0 0 0
178 1 -13.730623134683698 -9.155428608859344 -8.686371031829914 0 0 0
967 1 -13.671637973272063 -2.3253552815414125 -0.16258170388249127 1 0 0
68 1 -0.050580572245811695 -12.234994625640535 -11.605092234589216 0 0 0
182 1 -13.698391871212106 -10.552799563509584 -2.282112647399744 0 0 0
141 1 -1.6575552017975284 -8.62912964915764 -13.949752102032914 0 0 0
194 1 -2.3399915472309782 -0.48349143618211876 -0.0005151679280821497 0 0 0
63 1 -10.878779720829794 -1.9085338944340648 -0.043692056161933834 0 0 0
128 1 -10.067851292444589 -14.20772826978607 -7.136266508230057 0 0 0
491 1 -7.9428834153839745 -0.0030587611598260622 -6.2403030606078325 0 0 0
466 1 -10.859026429156252 -12.05829916912709 1.1958751638545948 0 0 0
132 1 -13.629078584764166 -12.513275591036612 1.154990825075794 0 0 0
87 1 -12.032584607633796 -13.964510021013812 0.012196451679329812 0 0 0
335 1 -7.19250502239608 -2.174100165104303 13.510709757867824 0 0 0
461 1 -8.058961601923196 -11.410248070384856 1.1345426554400042 0 0 0
309 1 -4.841529320144595 -13.804084317758232 1.968128732944301 0 0 0
85 1 -6.33997577182446 -12.988115981107885 0.16871359270951736 0 0 0
457 1 -3.4049024168260296 -12.588367558953784 0.26456201421321346 0 0 0
453 1 -2.004993961420178 -13.312540642175062 1.883512408670125 0 0 0
454 1 -0.6229076002586194 -12.147910341039445 0.2944133257247188 0 0 0
440 1 -12.540636262118944 -10.568205721023867 2.2000948955176884 0 0 0
172 1 -11.338242666198358 -9.352952804643401 0.4460800083817169 0 0 0
464 1 -9.788570292166646 -9.99692765513763 2.2926666387841284 0 0 0
462 1 -8.529320278330012 -8.993404186486998 0.5024194513429734 0 0 0
359 1 -6.904391113181335 -9.562914818943282 2.380746063088017 0 0 0
458 1 -5.2618418082212735 -11.116542850968601 1.314015252178141 0 0 0
459 1 -3.9998290205469154 -9.199191665258581 2.1934083173572443 0 0 0
455 1 -2.244224269488205 -10.565813931283497 1.2541827401200543 0 0 0
269 1 -1.126757271568957 -8.537584691066577 2.169922255190409 0 0 0
40 1 -12.995372415344365 -7.883726364506059 1.4596410360534584 0 0 0
451 1 -11.834485024737154 -5.893248445338621 2.4305781100485593 0 0 0
465 1 -9.996744438973687 -7.477235599624179 1.3587482721220177 0 0 0
360 1 -7.257606330598614 -7.0222687762237355 1.439746644306302 0 0 0
162 1 -5.545619942353209 -8.435519809796478 0.48197227374988927 0 0 0
368 1 -4.395515695506294 -6.5744326382902365 1.4259168478602504 0 0 0
456 1 -2.630300147409871 -7.8821388571788855 0.4306355244203104 0 0 0
278 1 -1.6321311575273363 -5.907482341485528 1.4182141589017654 0 0 0
1053 1 -13.26487213304292 -5.127579751009314 0.6286519355414111 1 0 0
421 1 -12.18295117777671 -3.2773380683048146 1.6686389815290887 0 0 0
411 1 -10.463144347434458 -4.565517883971774 0.49816978769522535 0 0 0
369 1 -7.655246108733068 -4.163371924463588 0.5742725599346574 0 0 0
412 1 -8.997403646458505 -5.459031397303365 2.2595494969511716 0 0 0
378 1 -4.920616150046309 -3.8850888910158368 0.7951944833056146 0 0 0
327 1 -6.292868776461875 -4.962094606085673 2.478036538449013 0 0 0
279 1 -3.3240300337745072 -4.520671876116378 2.5929566816319163 0 0 0
288 1 -2.074160357107825 -3.1248917825544797 0.7916236764515698 0 0 0
251 1 -0.6338839805002046 -3.960187231449085 2.5650781410027452 0 0 0
239 1 -12.695197782689327 -0.43795643541850104 1.0197542773636012 0 0 0
240 1 -11.156413201293184 -1.2759077195927038 2.6982322648643073 0 0 0
379 1 -9.37664559963266 -2.679893233764096 1.6326794342934772 0 0 0
295 1 -3.0515597502155014 -0.49797565905723573 11.752943421101152 0 0 0
337 1 -6.585578883098462 -2.2597331008804886 1.8042494425183104 0 0 0
235 1 -3.7494402983742887 -1.6222583275619815 1.7924913765654154 0 0 0
795 1 -5.45447813679672 -0.2382182636258232 2.7252583902088166 0 0 0
290 1 -0.917135775663338 -1.3508422156113689 1.7392892841419823 0 0 0
287 1 -4.330200529759319 -1.7269606977871685 13.51624363148897 0 0 0
433 1 -12.165278758836866 -13.296871446677097 2.9468600212826725 0 0 0
432 1 -10.677520634338688 -14.022756619639827 4.5886260506873935 0 0 0
392 1 -9.376766849766849 -12.863141906556212 2.962222947630165 0 0 0
345 1 -7.760329165628521 -13.708998694682842 4.642554892916044 0 0 0
351 1 -6.575166260143302 -12.338589189845438 3.015014394971411 0 0 0
317 1 -3.7210427869435687 -11.893862926412577 2.9477451579776126 0 0 0
302 1 -4.925765768048164 -13.189867161283212 4.755468397303003 0 0 0
254 1 -2.0515415933758643 -12.674980966174708 4.640212616985158 0 0 0
261 1 -0.8682197637490798 -11.435741797457972 2.916772247453965 0 0 0
393 1 -11.08369955681049 -11.297136339328382 3.9840101515772215 0 0 0
441 1 -12.924834622497364 -9.853790888060928 4.8748212399700765 0 0 0
402 1 -11.435303163171692 -8.632984783360028 3.276071618300916 0 0 0
352 1 -8.375836277485622 -11.023552604394682 4.190710018206756 0 0 0
403 1 -9.890053006960823 -9.422282173015741 5.020171988587384 0 0 0
361 1 -7.0839328414969005 -9.044213147815071 4.965570256248773 0 0 0
310 1 -5.33610237484193 -10.304257840384915 4.086946435701085 0 0 0
262 1 -2.5267282278529617 -9.952930390799672 3.8832867019740807 0 0 0
1186 1 -13.168759409136323 -7.131316241907755 4.249330683494945 1 0 0
413 1 -10.292097303664063 -6.634910879599396 4.194184643563782 0 0 0
401 1 -8.651680122938721 -8.150859830693722 3.269457751778761 0 0 0
370 1 -7.523953186971366 -6.218182828155495 4.202254120973917 0 0 0
319 1 -4.291389400297383 -8.476474774558152 4.9420458534044105 0 0 0
318 1 -5.842127998707218 -7.683810166518909 3.2738960858797608 0 0 0
280 1 -0.18519930977865506 -6.632132981908456 3.230768111606375 0 0 0
270 1 -2.944797638043573 -7.1624319986402885 3.2989362903194195 0 0 0
271 1 -1.4001610780781935 -7.966098319471864 4.886555925219929 0 0 0
1169 1 -13.510516438130956 -4.379885990018215 3.441894087953303 1 0 0
422 1 -10.71260596392245 -4.004938457978666 3.349832680917393 0 0 0
452 1 -12.045395269242464 -5.26479619975723 5.277330865148647 0 0 0
380 1 -7.99163898283708 -3.605226160581285 3.3779251798113474 0 0 0
371 1 -9.33793501805361 -4.679333232065238 5.269093258430315 0 0 0
328 1 -4.94858593895276 -5.78410521324883 4.317378173806821 0 0 0
329 1 -6.520151880180084 -4.1666403262812945 5.324772488119697 0 0 0
338 1 -5.018479079983271 -3.030107351664171 3.4918736344836443 0 0 0
281 1 -3.5247182267330146 -3.993342422062222 5.205050514388814 0 0 0
250 1 -0.8465785212750969 -3.2563694450956344 5.3716330788616045 0 0 0
423 1 -12.429270568897696 -2.3897547061366353 4.354715096053004 0 0 0
242 1 -11.235100915597167 -0.48604570945473213 5.404436497520846 0 0 0
237 1 -8.31284797406428 -0.7534310661776669 2.7229959440665628 0 0 0
381 1 -9.533101991883502 -2.0426601628474046 4.403175799314225 0 0 0
386 1 -8.688796550764799 -1.3536941317946773 11.736135617336364 0 0 0
339 1 -6.779942477408576 -1.5633482575244546 4.49582671311383 0 0 0
291 1 -3.999917870153965 -1.0917349325961894 4.621850231865965 0 0 0
289 1 -2.4074185932939454 -2.561802632556951 3.496628042669977 0 0 0
245 1 -1.12996122681235 -0.5757818076207997 4.650748550006492 0 0 0
435 1 -12.460150425756137 -12.594814461804846 5.655903069833213 0 0 0
434 1 -10.916589769278906 -13.379560232763078 7.372529018213422 0 0 0
397 1 -12.676191317397464 -11.829645349781869 8.327127773744982 0 0 0
394 1 -9.616780907684204 -12.197175721232663 5.730598230482828 0 0 0
346 1 -8.10953464049548 -12.85235595472508 7.422570910366465 0 0 0
353 1 -6.658232578849545 -11.715435592150184 5.778476162852135 0 0 0
304 1 -5.111323909788476 -12.533064400027818 7.427401598182636 0 0 0
303 1 -3.5992931080990935 -14.024138868570658 6.442447557149981 0 0 0
255 1 -0.6869714500853199 -13.52467287329432 6.56582177482918 0 0 0
256 1 -2.448559254290691 -12.012549754903056 7.432920519986718 0 0 0
395 1 -11.330166379084321 -10.604359943777709 6.693928333924125 0 0 0
1188 1 -13.084482654013554 -9.12739624826566 7.579792649864894 1 0 0
405 1 -10.2479703264333 -8.703189722227789 7.838071136234996 0 0 0
354 1 -8.529121690568907 -10.378885097045348 6.856110520953754 0 0 0
311 1 -3.858104734447357 -11.171027860550398 5.608410776543911 0 0 0
312 1 -5.657740348177597 -9.768175131357648 6.628474861201417 0 0 0
388 1 -9.504964420385235 -14.165102868400577 9.18971747208487 0 0 0
263 1 -1.0705679500990648 -10.80680493277939 5.665397955671098 0 0 0
264 1 -2.631541180953148 -9.3527350005822 6.571820531561981 0 0 0
404 1 -11.680003477784707 -7.991615100534814 5.988493698871315 0 0 0
414 1 -10.636535984404556 -6.067349572184327 7.108185297062578 0 0 0
447 1 -13.422321591503891 -6.467481742976498 6.854869651755072 0 0 0
363 1 -7.376179340173835 -8.293127108986017 7.736703100781147 0 0 0
362 1 -8.837858650154427 -7.475975943777131 6.028919283580022 0 0 0
321 1 -4.492781997028397 -7.8403554387323044 7.711896142835668 0 0 0
320 1 -6.008258577577778 -7.1557000003776405 6.017000915586687 0 0 0
272 1 -3.072131583996489 -6.716067539405318 5.895875308106268 0 0 0
298 1 -0.6308366015542539 -5.90265684653812 5.868345642352194 0 0 0
273 1 -1.8196371666476345 -7.3165172026309255 7.729739086401503 0 0 0
415 1 -12.427392253936254 -4.544799861417088 8.018572871662565 0 0 0
424 1 -11.012524187655691 -3.3252916359865043 6.241337753207725 0 0 0
372 1 -7.716568459177139 -5.479677609627673 6.940677918317606 0 0 0
373 1 -9.568039555680262 -3.979823636000056 7.963428242642573 0 0 0
331 1 -6.694113529088317 -3.4803973241435298 8.063211449907053 0 0 0
330 1 -4.930015639714046 -5.150893361476681 7.010410728472378 0 0 0
283 1 -3.8064360749077526 -3.129958266641948 7.9199126326216795 0 0 0
282 1 -2.108199570989523 -4.597953473418967 7.015250438618105 0 0 0
425 1 -12.674193301191393 -1.763102639050917 7.084155632143412 0 0 0
382 1 -8.218139069927453 -2.8331505491916253 6.23838349816876 0 0 0
383 1 -9.863206649743784 -1.363527212816452 7.1501877712944815 0 0 0
341 1 -7.069029830762871 -0.7302540088860994 7.222582799197541 0 0 0
340 1 -5.297247682646843 -2.3003872776594676 6.27004749348974 0 0 0
293 1 -4.228844108203836 -0.23488901518562422 7.20552287875814 0 0 0
249 1 -1.025765147665636 -2.5545312732345007 7.968237833638222 0 0 0
292 1 -2.5596736974280887 -1.7297632969218988 6.37843809115582 0 0 0
438 1 -11.079566708710304 -12.680720728696414 10.244674699520838 0 0 0
344 1 -5.8914541381756 -0.8632601713809169 11.726529925926718 0 0 0
348 1 -8.295533579074107 -12.251509836741947 10.277666205261516 0 0 0
347 1 -6.571765112751924 -13.70933800660464 9.193574782402854 0 0 0
306 1 -5.51116934981655 -11.847798995413743 10.140373257470932 0 0 0
305 1 -3.8335039593225435 -13.331416245257872 9.096963710391906 0 0 0
252 1 -2.319976039899526 -14.047013129688555 10.878510952728638 0 0 0
257 1 -0.9621625396189124 -12.84824653350646 9.22374136448636 0 0 0
258 1 -2.760277824975754 -11.345336518925283 10.159634626384799 0 0 0
442 1 -11.491805859815978 -10.013793331099858 9.396847545280695 0 0 0
1184 1 -12.884337247030949 -11.348004466028412 11.131145535053106 1 0 0
396 1 -9.788737294453421 -11.425637928166827 8.434464986884501 0 0 0
355 1 -6.938899388984726 -11.030607919870873 8.411484483945115 0 0 0
356 1 -8.700052309954348 -9.67884744005909 9.538054946776283 0 0 0
398 1 -9.998974489769253 -10.809891833154653 11.181953680488219 0 0 0
357 1 -7.1396499676293725 -10.268956956252056 11.17771485551066 0 0 0
313 1 -4.236860017746627 -10.422079407325052 8.37908667074169 0 0 0
314 1 -5.878125895335419 -9.13408929483835 9.515324779702935 0 0 0
265 1 -1.4059012434202582 -10.01516703203396 8.442917361146185 0 0 0
266 1 -3.102765744591432 -8.58911560880532 9.49251131520589 0 0 0
443 1 -13.242151353805317 -8.600480475328133 10.308090057234176 0 0 0
406 1 -11.962673219979612 -7.175615513854016 8.620533100354239 0 0 0
407 1 -10.383499906681003 -8.061770167459375 10.40832887695536 0 0 0
1096 1 -13.131515634590828 -10.484181824903237 13.853843208653894 1 0 -1
364 1 -9.04067339959129 -6.798974282760397 8.643475931700413 0 0 0
365 1 -7.652236366426672 -7.557924510093045 10.467039615964785 0 0 0
322 1 -6.377120710046765 -6.300081173585361 8.709864980217509 0 0 0
323 1 -4.804169289672405 -7.06083275382568 10.440958661790232 0 0 0
274 1 -3.4452269578741053 -5.752386655949147 8.809744543131144 0 0 0
1380 1 -0.3160491386764974 -8.007798745358965 9.4287335797488 0 0 0
275 1 -2.0732004081150546 -6.656057476187841 10.481619327026442 0 0 0
416 1 -10.846745878278945 -5.34090679816326 9.689406342706176 0 0 0
1171 1 -12.612332991244816 -3.8704770199018412 10.61615730959115 1 0 0
374 1 -8.000151446182754 -4.849771976187231 9.835845546983554 0 0 0
375 1 -9.858865582122183 -3.297534239379143 10.559463468456867 0 0 0
332 1 -5.195543277300223 -4.3474792578363335 9.621916747304711 0 0 0
297 1 -0.6854333607626515 -5.366532464252094 8.73569649062914 0 0 0
284 1 -2.341967616112827 -3.877590045053699 9.664357272643327 0 0 0
426 1 -11.231815050819819 -2.6573570344804462 8.98296675762955 0 0 0
427 1 -13.06438049047198 -1.041047317776851 9.964077876908243 0 0 0
463 1 -9.140178606812876 -13.6466143936544 0.10572016077351343 0 0 0
333 1 -6.8764726498333495 -2.7145707861316968 10.638256595634571 0 0 0
385 1 -10.0928326943264 -0.6929881598333729 9.96036403283687 0 0 0
384 1 -8.375509877385609 -2.073670791408315 8.899533405186004 0 0 0
285 1 -4.088215167343478 -2.3236390079852782 10.718767613629003 0 0 0
342 1 -5.528680497420709 -1.4511973461779686 8.911261209863975 0 0 0
248 1 -1.2377743052881733 -2.0081835500437144 10.78471907899054 0 0 0
294 1 -2.8076673713745937 -1.136638463514453 8.986197790464908 0 0 0
430 1 -12.434856341030326 -13.914663061709243 11.891651098398805 0 0 0
431 1 -11.476930280825988 -11.971735513784454 12.999564937963596 0 0 0
389 1 -9.714435053931183 -13.535255276613324 11.905067645636153 0 0 0