LAMMPS data file via write_data, version 23 Jun 2022, timestep = 0

1866 atoms
3 atom types

-13.731058486178966 13.731058486178966 xlo xhi
-14.124603409606976 14.124603409606976 ylo yhi
-14.142881246778364 14.142881246778364 zlo zhi

Masses

1 55.847
2 1.008
3 1.008

Atoms # atomic

76 1 -10.834531779307921 -12.011240665385797 -13.506484164697078 0 0 0
1377 1 -13.252174223239582 -11.81583162348706 -13.852351517384202 1 0 1
1394 1 -12.707476515072479 -13.939262058800725 -12.58645125671802 1 0 1
48 1 -11.94265241029552 -12.0984621460553 -11.30645119239814 0 0 0
78 1 -8.304182254978098 -12.257035971074757 -13.327917157896199 0 0 0
17 1 -9.061660836406272 -0.09878474480757049 -3.837599405425287 0 0 0
79 1 -5.883158644743571 -12.538276880145013 -13.004504023561562 0 0 0
202 1 -3.4606952814624794 -12.699587292394305 -12.659986926304954 0 0 0
203 1 -0.9358788447198467 -12.718297463796697 -12.312971544279588 0 0 0
119 1 -12.344516804013045 -9.892310001963741 -12.496958786261114 0 0 0
117 1 -9.96267769503242 -10.125370118484705 -12.138532111417149 0 0 0
80 1 -7.498489984599785 -10.235827933384192 -12.000294051897265 0 0 0
81 1 -5.007342748543362 -10.52438380863672 -11.704560682361247 0 0 0
111 1 -3.9381170029500208 -10.487859533539892 -13.766507283221312 0 0 0
97 1 -5.601727385363425 -8.465237439937148 -12.90811360969089 0 0 0
115 1 -0.6538402044817051 -8.753547771596084 -12.35707054020293 0 0 0
113 1 -1.6005121874014048 -10.81314219976819 -13.630015186356871 0 0 0
112 1 -3.0478718307632224 -8.463549891115214 -12.509043282552039 0 0 0
1013 1 -12.210986213118058 -5.884398225453239 -12.585410632732074 1 0 0
145 1 -13.122863193963243 -7.794833553209294 -13.727335012010807 0 0 0
155 1 -10.555841948804376 -7.898815789331723 -13.486576842023227 0 0 0
98 1 -8.159478499815627 -8.382282922759892 -13.235062152588812 0 0 0
109 1 -9.733471252013004 -5.867860352258546 -12.200962449436775 0 0 0
153 1 -7.215306011882431 -6.410656906141828 -11.925540995555536 0 0 0
95 1 -4.7550402310123285 -6.519588907054059 -11.651336516189918 0 0 0
88 1 -3.6344342200221345 -6.541929213069509 -13.87656529249881 0 0 0
1081 1 -13.686739084306339 -13.72814037622829 -10.503889932308315 1 0 0
75 1 -1.2748557364013653 -6.616045465116763 -13.528284038616146 0 0 0
323 1 -12.491691992557266 -3.905661106648335 -13.762370252177483 0 0 1
154 1 -11.132636514098847 -3.944565857728861 -11.368458446194747 0 0 0
135 1 -5.720458043482829 -2.36385634446693 -13.980482918407311 0 0 0
143 1 -10.190775126974284 -3.898498657174933 -13.609596221218931 0 0 0
141 1 -7.813838593420696 -4.243980263936832 -13.144146220692784 0 0 0
586 1 -5.235476942375376 -4.472030158788678 -12.822931876941894 0 0 0
87 1 -2.83663264953314 -4.649981309663394 -12.46279282082283 0 0 0
74 1 -0.38259892769806036 -4.804798113094964 -12.330371515522575 0 0 0
173 1 -11.63920712835894 -1.8526254163026064 -12.458928858534698 0 0 0
152 1 -9.243183617987855 -2.1858692660212586 -12.117942622531901 0 0 0
603 1 -7.356053556698348 -0.24378250385043643 -13.04795279896597 0 0 0
151 1 -6.816599129427928 -2.3681964824521895 -11.768859726212181 0 0 0
593 1 -4.8899769114992875 -0.3328561809734669 -12.686476758976145 0 0 0
140 1 -4.238347594996659 -2.3165798659226873 -11.402339867314229 0 0 0
1 1 -2.572968750791045 -0.6672634716009949 -0.7099169184028415 0 0 0
137 1 -3.319453700011948 -2.5685134787806003 -13.752279468897493 0 0 0
133 1 -0.8706921921722977 -2.693544105977166 -13.48801847556422 0 0 0
139 1 -2.344320427371935 -0.4911721290599136 -12.387386022670428 0 0 0
682 1 -0.22501331643240974 -12.973105414900099 -2.8593634224055915 0 1 0
973 1 -12.866114497113962 -11.87673175888606 -8.983111144135847 1 0 0
221 1 -10.361939951139878 -12.022396334802577 -8.753345142314373 0 0 0
69 1 -13.63663329661211 -7.854204439101482 -6.740551782168109 0 0 0
49 1 -9.493413836415787 -12.149557210983097 -10.930908540109487 0 0 0
211 1 -6.92320375931919 -12.33891992994024 -10.629309505991765 0 0 0
210 1 -4.459822648047009 -12.459135629367708 -10.40231644022965 0 0 0
208 1 -2.0081830344428244 -12.667870182642394 -10.143105765486375 0 0 0
50 1 -10.923302725361513 -10.134486017471021 -9.988217333934564 0 0 0
991 1 -13.47392050878848 -9.893088381603178 -10.394937069058237 1 0 0
51 1 -8.47788210265413 -10.139404042794238 -9.842074325702516 0 0 0
209 1 -6.010734307422341 -10.392939669542997 -9.505551505289636 0 0 0
207 1 -3.535323263950872 -10.559438528497319 -9.224417455384136 0 0 0
83 1 -4.105430041442492 -8.535267127469382 -10.35337301579484 0 0 0
200 1 -2.499253273835734 -10.698675996404999 -11.367774828839615 0 0 0
206 1 -1.1150190793900094 -10.730141027240709 -8.800047394349082 0 0 0
85 1 -1.7242375499267997 -8.713262331112755 -10.019822292502312 0 0 0
1151 1 -0.06432039050693561 -10.757124889946912 -11.230697359668024 0 0 0
118 1 -11.396079235197158 -7.91612039420213 -11.125909241365449 0 0 0
130 1 -12.59625871101594 -7.894502538070718 -8.914634257989146 0 0 0
163 1 -13.044628753843064 -5.882367212391513 -10.328819199568795 0 0 0
108 1 -8.945576060728792 -8.009251002137857 -10.907682822292552 0 0 0
129 1 -10.044060216774684 -7.944846407601485 -8.685044154958746 0 0 0
52 1 -7.489740214157328 -8.292355224208077 -8.46405057317221 0 0 0
82 1 -6.403330684348758 -8.255187236866636 -10.710555939388305 0 0 0
96 1 -5.780623675815733 -6.360351921946099 -9.439925942700722 0 0 0
114 1 -2.173208197057326 -6.633477379086946 -11.262782336588185 0 0 0
84 1 -3.303572020564806 -6.540152761874276 -8.958546978881934 0 0 0
86 1 -0.7915700519702256 -6.820413894725257 -8.801955011931563 0 0 0
161 1 -12.070113710757463 -3.9468415042097913 -8.994421270418727 0 0 0
92 1 -3.9732941406873756 -4.562704915693931 -10.337207092741885 0 0 0
93 1 -1.521547563691433 -4.79226267079191 -10.007118175890287 0 0 0
1048 1 -12.623241150974204 -1.8701444757365238 -10.24004119812472 1 0 0
89 1 -6.111891796470515 -6.399114396716546 -14.096838839407166 0 0 0
107 1 -10.295575537131405 -2.1863649685834723 -9.924687731653684 0 0 0
176 1 -8.42755294588438 -0.22716597074225042 -10.874942489291016 0 0 0
94 1 -5.527865799125159 -2.3038565092318226 -9.34476843617006 0 0 0
150 1 -5.990737724272808 -0.4251293375873555 -10.580309324807024 0 0 0
332 1 -3.4971689456703174 -0.46514979356324915 -10.218665597927977 0 0 1
570 1 -0.4097478677490276 -2.697693649171093 -8.671825913814162 0 0 0
138 1 -1.9178404806166718 -2.5050172732127134 -11.145191670934512 0 0 0
169 1 -2.943495388649838 -2.564288179368136 -8.964910421974643 0 0 0
165 1 -0.9454062057681671 -0.7095426262528015 -9.872443511835655 0 0 0
960 1 -12.241709299569894 -14.091850113762415 -7.9684668058645745 1 0 0
222 1 -11.524044909495794 -12.119012157913275 -6.600046879363951 0 0 0
962 1 -13.32062046484307 -13.834993573652389 -5.731079170182769 1 0 0
232 1 -9.909621936233183 -14.065188437629722 -7.558431386105392 0 0 0
220 1 -7.970578305740435 -12.26255463592473 -8.478939156688961 0 0 0
231 1 -9.057697394747702 -12.22152647589688 -6.388316592293341 0 0 0
184 1 -5.458986853215297 -12.499685469080557 -8.118319970880421 0 0 0
230 1 -6.598645111379937 -12.35803430593638 -5.96936622459228 0 0 0
218 1 -2.993935842096903 -12.610755463369268 -7.919201061153526 0 0 0
183 1 -0.5151865222444894 -12.766992262996949 -7.530406987721199 0 0 0
19 1 -12.00799764486503 -10.013145584267175 -7.838766792010295 0 0 0
21 1 -9.56455060543684 -10.165699709933792 -7.617208405716093 0 0 0
219 1 -6.930364777711482 -10.422234976676911 -7.2819676246006475 0 0 0
217 1 -4.478601235677521 -10.387491333675332 -6.945211355431443 0 0 0
25 1 -3.7633950473765587 -8.478317957493113 -5.647965395447256 0 0 0
205 1 -0.20106372899945413 -8.884094314183224 -7.598787280084486 0 0 0
216 1 -2.2329181499126367 -10.688800832913874 -6.610422510331422 0 0 0
55 1 -2.7094727084372323 -8.5864201808747 -7.905471389067025 0 0 0
128 1 -11.087028694681813 -8.069784666292088 -6.499278142195083 0 0 0
20 1 -11.73570821026117 -6.061327636034285 -7.767489657889297 0 0 0
1079 1 -11.202283311910442 -14.000884021024042 -9.995871138318794 1 0 0
22 1 -8.748481516879247 -8.168312439679902 -6.359870369800747 0 0 0
126 1 -6.854110961966458 -6.274284764250016 -7.2347926981866415 0 0 0
53 1 -5.153815435530943 -8.464094552739837 -8.144776903653103 0 0 0
23 1 -6.236846505889216 -8.427329618010301 -5.958616257597784 0 0 0
54 1 -4.451407942340017 -6.495474231757881 -6.936334224144126 0 0 0
57 1 -1.9088739542733268 -6.663865023585266 -6.581023705302389 0 0 0
32 1 -13.216548546714726 -3.7369846285351382 -6.728888297472474 0 0 0
125 1 -10.68137314252633 -4.002844219356133 -6.577431919072913 0 0 0
127 1 -8.290804375630112 -4.221520998298436 -6.347364099003294 0 0 0
106 1 -4.897967494752013 -4.434166492971228 -7.885946065763137 0 0 0
105 1 -5.8097975459430735 -4.398898634413182 -5.78724234972173 0 0 0
104 1 -2.4594273093636883 -4.631734068483087 -7.813960725517066 0 0 0
37 1 -11.356236111121918 -1.9415657469668144 -7.6544742302194155 0 0 0
1866 1 -0.11081725288591926 -0.9577431758237704 -0.38196975708751957 0 0 0
124 1 -8.883304711850814 -2.0488041758809583 -7.534056470587003 0 0 0
168 1 -7.102311596980856 -0.16609114654624868 -8.274673119400438 0 0 0
564 1 -8.144431579599292 -0.15414322090145482 -6.123139081170642 0 0 0
149 1 -4.45336774445296 -0.45039374715653935 -7.915629379804017 0 0 0
160 1 -6.39818130965526 -2.245226528352868 -6.924860817345066 0 0 0
157 1 -3.9616160488356265 -2.4288571077520835 -6.670600911888087 0 0 0
16 1 -5.487222814923117 -0.4170030480576479 -5.805311612656043 0 0 0
102 1 -1.469507464821989 -2.7839700241447396 -6.5306164709319265 0 0 0
156 1 -2.117411390255329 -0.538631827509441 -7.643904576687959 0 0 0
1020 1 -13.635764332233126 -3.795764543056805 -11.621391318924488 1 0 0
961 1 -12.508101746277601 -12.000739668571049 -4.420612362444581 1 0 0
985 1 -0.08763190256586562 -4.842203338760276 -7.531610240390011 0 0 0
45 1 -10.061659615127073 -12.21908452333372 -4.099969422829679 0 0 0
195 1 -7.657922221906371 -12.173557773676214 -3.746085753951977 0 0 0
1007 1 -13.709272827366405 -5.840625152024822 -3.3533671379698617 1 0 0
187 1 -4.02138074041606 -12.555093892124178 -5.842040723788481 0 0 0
194 1 -5.0523497657527106 -12.452344280316677 -3.429539611169101 0 0 0
186 1 -1.6751479422669817 -12.780694011038227 -5.365487994887129 0 0 0
192 1 -2.565778698420239 -12.68876988092757 -3.0588408043570805 0 0 0
555 1 -11.970804816636443 -14.043369597064222 -3.111899490161587 0 1 0
70 1 -13.125774779699107 -9.980049088461742 -5.339306721430345 0 0 0
44 1 -10.573632279430102 -10.183065037073598 -5.352398550082654 0 0 0
46 1 -11.655519096788584 -10.07889190542328 -3.1227136450736914 0 0 0
229 1 -8.07427854509135 -10.151195496977428 -5.059141954042818 0 0 0
228 1 -5.560830736644521 -10.45993535829296 -4.6944344411892445 0 0 0
226 1 -3.231543859245699 -10.660318705694603 -4.358533236385641 0 0 0
185 1 -0.7542454030183894 -10.736794884191664 -4.007654477709213 0 0 0
215 1 -1.3266953118681002 -8.689016006404323 -5.328303592213301 0 0 0
224 1 -2.359162875344106 -8.604124184255834 -3.1467083566222467 0 0 0
427 1 -7.308432688099893 -6.32470758882599 -0.19505354881351344 0 0 0
997 1 -12.703900329968674 -5.779474763413642 -5.661812934053884 1 0 0
68 1 -12.23674017060574 -7.903770447607141 -4.345352963001124 0 0 0
14 1 -11.182659163603082 -5.94662344666232 -3.1757248164703267 0 0 0
66 1 -7.150090458442193 -8.28473830874789 -3.746363990022145 0 0 0
9 1 -10.216831444264312 -6.12264362748798 -5.382917910986945 0 0 0
67 1 -9.73618139995204 -8.207338948114963 -4.094326280593695 0 0 0
7 1 -7.656589405896359 -6.286425017739641 -5.040485465391898 0 0 0
227 1 -4.669790560287792 -8.519222221701817 -3.377429111543657 0 0 0
24 1 -5.270467385605645 -6.531109065488743 -4.592409509368359 0 0 0
27 1 -2.835241502073675 -6.629676244697452 -4.285803270206955 0 0 0
213 1 -0.34790658409307795 -6.816423583496661 -3.9805423094676495 0 0 0
8 1 -11.625818454571736 -3.8441476948786093 -4.391176955383591 0 0 0
6 1 -9.309377084525355 -4.183873422273104 -4.002825344127892 0 0 0
5 1 -6.899613696783588 -4.337627626833104 -3.684502305501505 0 0 0
26 1 -4.326230107879892 -4.684326155797121 -3.364663276449379 0 0 0
56 1 -3.250169761681475 -4.618105171431987 -5.586245281554696 0 0 0
58 1 -0.9080014326714423 -4.69771856928697 -5.2322474918530695 0 0 0
29 1 -1.9674578867680967 -4.6378643721304265 -2.9530841243535697 0 0 0
31 1 -12.302326799412308 -1.691169848453887 -5.541188191095912 0 0 0
1036 1 -13.414051565093809 -1.7966675742905451 -3.160313371259372 1 0 0
35 1 -10.911349891578817 -2.008324585385017 -2.8760147814826933 0 0 0
18 1 -9.793058571886483 -2.163424728710842 -5.423501493193296 0 0 0
158 1 -7.460205367804352 -2.1232226022344296 -4.9346364037783506 0 0 0
28 1 -3.5458260171847584 -2.529152161464344 -2.0291100458045186 0 0 0
15 1 -6.637768849810898 -0.32257611664138075 -3.5285121017647665 0 0 0
123 1 -4.968731101956978 -2.3984734195533477 -4.368847858675494 0 0 0
563 1 -4.095520408704568 -0.4267650180948124 -3.206640140392981 0 0 0
557 1 -1.662714839317955 -0.7131357778046912 -2.93203775428538 0 0 0
121 1 -3.0515535357214425 -0.3405800232930165 -5.474212940082028 0 0 0
122 1 -2.4980479945304186 -2.554646134793238 -4.25696419355957 0 0 0
101 1 -0.6569674219766561 -0.7411000824634506 -5.25654566466944 0 0 0
548 1 -12.976390801713933 -13.970752490116295 -0.9946187820204369 0 1 0
196 1 -11.169763754551958 -12.038964859697398 -1.7968366243107852 0 0 0
30 1 -1.0013645103665887 -2.72719954975606 -1.678537372479047 0 0 0
546 1 -8.684723996704165 -12.254017405809822 -1.6818560512648357 0 1 0
179 1 -6.175977720585251 -12.451493064136807 -1.118750633939941 0 0 0
296 1 -3.6477238859776193 -12.630953533109002 -0.8594378123885242 0 0 0
1101 1 -1.2179912852548522 -12.803969711793531 -0.6073531525009699 0 0 0
1011 1 -12.686878355901358 -9.959619983573697 -0.8407160868175261 1 0 0
43 1 -9.159287221899884 -10.199937206338396 -2.8016831059463883 0 0 0
39 1 -10.127682164908158 -10.166385906192724 -0.5797498870109834 0 0 0
38 1 -7.575281207639431 -10.352842517190997 -0.0889815369778244 0 0 0
193 1 -6.717929234534525 -10.277135530668808 -2.529743078101074 0 0 0
191 1 -4.15884961753887 -10.624634578420245 -2.2001361157852237 0 0 0
178 1 -1.8491463495432932 -10.655070569916472 -1.845706754908953 0 0 0
190 1 -0.9454925755478527 -8.869986938925216 -0.6843346924416664 0 0 0
278 1 -3.4251318176867684 -8.609582971980107 -0.7051638187234364 0 0 0
73 1 -13.225312471230986 -7.945039170236504 -2.0343870839379257 0 0 0
71 1 -10.79261884319304 -8.187036119339513 -1.8613935851498873 0 0 0
72 1 -12.165811277578804 -5.945429252352113 -0.8150520640606427 0 0 0
965 1 -13.575665660618116 -11.915671843773827 -2.235438717839431 1 0 0
65 1 -8.811148763192165 -6.163423240326008 -2.762662716522037 0 0 0
42 1 -8.240951306551544 -8.344842352928591 -1.5242705178060767 0 0 0
454 1 -9.669870745029732 -6.1536130642971605 -0.40211301644125363 0 0 0
41 1 -5.742801789319389 -8.389889443229462 -1.1592143543769833 0 0 0
64 1 -6.345334391462784 -6.366801851413806 -2.441368818862765 0 0 0
225 1 -3.8301413625408713 -6.564027995580104 -1.9784498102977093 0 0 0
223 1 -1.3955651774101003 -6.732098828701025 -1.7791008150502776 0 0 0
13 1 -12.79877833156883 -4.018290957076525 -2.083011039438304 0 0 0
12 1 -10.35119005725739 -4.18540964227561 -1.7072447838814124 0 0 0
10 1 -7.891770827470538 -4.177230655506026 -1.4957892580509586 0 0 0
63 1 -5.360508577960374 -4.532908278101731 -1.1069871127509305 0 0 0
62 1 -3.0662616266152067 -4.543790241586779 -0.7380455351400332 0 0 0
1161 1 -0.5575972489724776 -4.8233419241897 -0.4468506972928932 0 0 0
11 1 -11.89052268688235 -2.036101664828056 -0.7719807326115244 0 0 0
463 1 -6.888114581998712 -2.3495253693548985 -0.04705260914722764 0 0 0
470 1 -7.451613213368956 -0.19650431263059254 -1.1622769903651378 0 0 0
4 1 -8.380801566548808 -2.1615882469638663 -2.5931103908349318 0 0 0
440 1 -9.423258881788119 -2.0304952517039343 -0.38517458196020726 0 0 0
2 1 -5.046181849278248 -0.41442353392281817 -1.055593274233269 0 0 0
3 1 -5.840804542841176 -2.418644461681234 -2.277991355167165 0 0 0
1432 1 -10.834094510598455 -0.056136633359583854 -11.054909203152643 1 0 0
572 1 -9.823933829727174 -0.06832204737553482 -13.418766612078075 0 0 0
33 1 -9.983897241455782 -0.06551811895106319 -1.5590578525280137 0 0 0
120 1 -0.030458405320969106 -2.69024433188064 -3.8691008342876465 0 0 0
547 1 -10.5039928719646 -14.11278897431292 -0.530814511561136 0 1 0
452 1 -12.001894074872467 -12.01761177597787 0.37343661333463807 0 0 0
433 1 -13.1327027279466 -11.88935978246117 2.6743019287056864 0 0 0
771 1 -11.048190023889482 -14.061473362425065 6.43810611110772 0 1 0
451 1 -9.62506052238636 -12.147261041250173 0.7972446819704562 0 0 0
373 1 -7.1958720744576254 -12.395432924831823 1.1090156303458745 0 0 0
372 1 -4.809714944422613 -12.423279618203157 1.485223375987525 0 0 0
295 1 -2.3074128696614196 -12.703437866738732 1.67059345632258 0 0 0
431 1 -11.30138894889695 -10.137780437537383 1.642777995120726 0 0 0
376 1 -1.4964705732455936 -0.5835871577360763 13.663356918993609 0 0 0
430 1 -8.85115724972188 -10.180818670844978 2.101171248585173 0 0 0
274 1 -6.363867754369205 -10.412944502436376 2.3868704926989484 0 0 0
275 1 -3.817366854715635 -10.541914771489912 2.666878561088298 0 0 0
1244 1 -0.05496361684700446 -4.945231417525523 4.2913962857842645 0 0 0
276 1 -4.340339669723091 -8.502531806699483 1.3940281427575805 0 0 0
1296 1 -2.8095854034315906 -10.633351146677693 0.5163327633400314 0 0 0
1346 1 -0.3054339638870136 -10.839875613162413 0.6170254012219551 0 0 0
277 1 -1.8911179114148133 -8.838722402373119 1.761290838902136 0 0 0
459 1 -10.72378380846742 -5.956714624039984 1.8332040167988222 0 0 0
450 1 -11.628921063987418 -8.036349183356837 0.5855374742467419 0 0 0
436 1 -13.160413417667892 -5.887799350470052 1.4327855536200236 0 0 0
457 1 -12.687620933829535 -7.885984280649218 2.8797237919951097 0 0 0
429 1 -9.26890147210106 -8.22111279278057 0.737750640171706 0 0 0
460 1 -8.391335309997332 -6.345966643600747 2.0427200468416427 0 0 0
428 1 -6.80477650513082 -8.424446131664578 1.0300823125691636 0 0 0
240 1 -5.8216280788691535 -6.3750097019699625 2.302210759701376 0 0 0
241 1 -3.4523121525813334 -6.657923417334551 2.83471638071679 0 0 0
426 1 -4.928330518293647 -6.49113163277537 0.153785898226527 0 0 0
1264 1 -2.4501268246696295 -6.637939334137446 0.57069493845861 0 0 0
849 1 -8.478111669602953 -0.12561815404422383 0.8829697903439016 0 0 0
438 1 -11.243149779958141 -3.9503469101807056 0.5158706166724087 0 0 0
444 1 -12.44556426936526 -3.814068671931688 2.708255614024006 0 0 0
461 1 -8.828652915583875 -4.142766126709761 0.7799726768743458 0 0 0
462 1 -6.404280629587269 -4.348961299256729 1.1020419033360653 0 0 0
242 1 -4.023502540192185 -4.504794013894854 1.5156072198406054 0 0 0
243 1 -1.5465290319066014 -4.805958882102013 1.8025785019524623 0 0 0
423 1 -12.870098013899765 -1.8250982825753042 1.4017775644176247 0 0 0
446 1 -10.384914217496926 -1.937186555257039 1.7255722654086796 0 0 0
447 1 -8.08122436370586 -2.156467882171359 2.126842477200528 0 0 0
367 1 -4.657723944355213 -2.3376631680152826 12.027187894441075 0 0 0
386 1 -5.5024303027968084 -2.3200997105319896 2.4803137202251744 0 0 0
887 1 -3.6473978380328234 -0.5756217619844524 1.5895734814553162 0 0 0
848 1 -6.107467543293724 -0.3647984126581658 1.266048131226981 0 0 0
464 1 -4.5693412842208225 -2.5406973966245303 0.23685938942566942 0 0 0
244 1 -2.1027852619530627 -2.719621230972601 0.5780984276129804 0 0 0
388 1 -1.2213658057589907 -0.7979218981258533 1.7646545046009159 0 0 0
387 1 -3.0742487733127124 -2.673696963321822 2.7419179285326276 0 0 0
432 1 -10.625830535042153 -12.111742462166228 2.9998139348290085 0 0 0
434 1 -11.740575137144061 -12.03746173985201 5.1421038072441245 0 0 0
769 1 -12.549152073520217 -13.860963240716663 3.8900172426099093 0 1 0
374 1 -8.057858165162363 -12.355128305532375 3.404047087973945 0 0 0
234 1 -9.248236832920767 -12.168986735037178 5.545371511292535 0 0 0
272 1 -5.699312322956146 -12.438718349214954 3.6329760955472583 0 0 0
297 1 -3.221357130580973 -12.609473938255707 3.909387466386475 0 0 0
298 1 -0.8680723139738689 -12.907815420506083 4.188424057471936 0 0 0
456 1 -12.160479896631873 -9.986211358935673 3.9411285583183098 0 0 0
236 1 -9.66864601325437 -10.11670608677619 4.269606959684689 0 0 0
237 1 -7.254652555109688 -10.331325876891542 4.654913145550433 0 0 0
281 1 -4.845452224064259 -10.412815270658458 4.816525419041222 0 0 0
239 1 -5.524184005313765 -8.477999435635143 3.5916982473268977 0 0 0
299 1 -1.2674585678327226 -10.880734635389583 2.9872008141596336 0 0 0
282 1 -2.440902607408919 -10.616838016910899 5.205584016753404 0 0 0
1265 1 -0.29741664299930193 -8.75980173086485 4.271552834366764 0 0 0
283 1 -2.845108040981035 -8.660969860748372 3.962933171009892 0 0 0
380 1 -11.281907502298385 -8.009092200156779 5.1905088478295465 0 0 0
443 1 -11.897961549938268 -5.883468907853475 4.076855915202598 0 0 0
458 1 -10.277915548206675 -8.080497118927736 2.9577225180314226 0 0 0
238 1 -7.870754603353503 -8.261628121944112 3.4065116266933426 0 0 0
382 1 -9.502549451459823 -6.204817614206292 4.316036849706846 0 0 0
383 1 -6.997793741264801 -6.285370176201754 4.586652973306807 0 0 0
381 1 -9.053068490890904 -8.2309868987013 5.595371868989433 0 0 0
251 1 -4.486111933884013 -6.554470716433531 4.96773791661626 0 0 0
284 1 -0.8679525578375529 -6.80893287909335 3.028753211961261 0 0 0
252 1 -2.0230321797224917 -6.592833729676258 5.218294933151226 0 0 0
337 1 -10.988726525820457 -3.934809159829129 5.298614197629705 0 0 0
424 1 -13.508010430930801 -3.8514734879717345 5.000266655008732 0 0 0
445 1 -9.948632870241175 -3.98985832363741 3.0819564580897367 0 0 0
384 1 -7.586077813300051 -4.3001761743686195 3.275709770655526 0 0 0
385 1 -5.056854122812965 -4.557473958027504 3.7444266135766906 0 0 0
253 1 -2.4546245480851923 -4.502015042067423 4.0340523935880075 0 0 0
923 1 -9.677525452991834 -0.025929077408209267 3.066821037138224 0 0 0
435 1 -11.630784173459919 -2.0378437455274163 3.9562856671993547 0 0 0
339 1 -9.146988129712321 -2.1273931867140483 4.333265929370727 0 0 0
880 1 -7.1626467468584085 -0.19779001569757604 3.4526196971083625 0 0 0
340 1 -6.731255434571673 -2.3579674667915285 4.600361118435819 0 0 0
341 1 -4.726065177091801 -0.4663440554577516 3.781056034267378 0 0 0
399 1 -4.196261533461428 -2.4360217093727172 4.922547403589347 0 0 0
254 1 -0.6085632759399662 -2.787392088857807 3.094663590920929 0 0 0
400 1 -1.633697681869302 -2.5680519304343203 5.275056010396272 0 0 0
401 1 -2.2850621389532915 -0.6283705017880905 4.0248278685878045 0 0 0
368 1 -2.204250120917262 -2.427009225848309 12.268584524851187 0 0 0
888 1 -13.483492934644653 -13.909188239562774 6.145299508025511 0 1 0
378 1 -12.711160526019421 -11.916564005922996 7.449414934457634 0 0 0
245 1 -10.270799601523889 -12.11128965664775 7.855163019462756 0 0 0
246 1 -7.776511585359058 -12.350705099301932 8.053483549186355 0 0 0
235 1 -6.819911572935322 -12.361663100815756 5.794613797088006 0 0 0
280 1 -4.2739998415672 -12.545267641321194 6.120781430830354 0 0 0
285 1 -5.359500669311991 -12.371599942433043 8.276689224882722 0 0 0
300 1 -1.9048652409003868 -12.652081054230836 6.348034744464927 0 0 0
1171 1 -13.122210114477783 -9.915597371961788 6.16091778321905 1 0 0
379 1 -10.691045957223501 -10.124232681444692 6.591477882252322 0 0 0
247 1 -8.26615639279653 -10.34930702057385 6.897592231474841 0 0 0
248 1 -5.861744159856496 -10.368231358390215 7.0771624784655085 0 0 0
250 1 -4.029630798264149 -8.479144357257184 6.10663287457403 0 0 0
287 1 -3.4423363256761625 -10.434440894823299 7.467226133011851 0 0 0
288 1 -1.053970760714753 -10.77257599970961 7.6483281951967665 0 0 0
289 1 -1.6050966023743598 -8.57054666289594 6.416319221851884 0 0 0
334 1 -12.26090648580681 -7.9380398910974 7.421924510735449 0 0 0
335 1 -12.847099439866724 -5.831411877977205 6.277765837514979 0 0 0
336 1 -10.469201629581804 -6.028925051278547 6.56557080475625 0 0 0
394 1 -7.4371704242664425 -8.393291533030123 8.016085890767135 0 0 0
393 1 -9.76672409403955 -8.13155035999122 7.833935204479298 0 0 0
395 1 -8.076821760555575 -6.24379528470219 6.8518869117862256 0 0 0
249 1 -6.520222728226533 -8.292467904971854 5.859800077787186 0 0 0
396 1 -5.58156806376047 -6.395057797405651 7.077131285774248 0 0 0
259 1 -4.934304184013655 -8.40306291998806 8.285461028912282 0 0 0
261 1 -3.0572228221120454 -6.45052833407103 7.490207658885135 0 0 0
262 1 -0.5818899378949034 -6.689003959428747 7.657554301419799 0 0 0
311 1 -12.162970757426866 -3.9457132430045707 7.552352747139954 0 0 0
338 1 -8.699597259267932 -4.190127227537575 5.555441627437988 0 0 0
347 1 -9.510625901552878 -4.140166494611931 7.988632071842838 0 0 0
348 1 -7.086444979900709 -4.19192802393224 8.089119718573228 0 0 0
397 1 -6.039270202239866 -4.257262773517102 5.827683604646259 0 0 0
398 1 -3.6572720149907436 -4.414449012819738 6.115013868931404 0 0 0
263 1 -1.1438352925722768 -4.700916550594643 6.4579812667069785 0 0 0
312 1 -12.576946846781293 -1.90586673267822 6.237920326889002 0 0 0
134 1 -3.9673927086267398 -0.42587675295612826 13.275697367076019 0 0 -1
370 1 -0.4695130648336914 -0.7833278916717816 11.342244303160156 0 0 0
313 1 -10.144291378620434 -2.0946508637469847 6.660009662801633 0 0 0
349 1 -7.613320361147131 -2.1579594224215874 6.843023356782174 0 0 0
322 1 -6.818906529294589 -0.238040193435884 8.146265374329237 0 0 0
351 1 -5.801691092406906 -0.2197101040370235 6.042071393497453 0 0 0
350 1 -5.239020471028324 -2.4348086743082042 7.109709063838034 0 0 0
363 1 -4.386536261019254 -0.4226977668989491 8.510665827885093 0 0 0
1310 1 -0.3237869650264571 -2.71951496596637 7.8272517350832995 0 0 0
352 1 -3.357006433942722 -0.47710769864596614 6.192389379441641 0 0 0
412 1 -2.750606220134582 -2.450498258848725 7.44681149752858 0 0 0
413 1 -0.8163510034998236 -0.5618023393585503 6.522516963944801 0 0 0
314 1 -8.200389855159075 -0.1653173275597286 5.5758395530581755 0 0 0
390 1 -11.39543128213087 -11.997669317284828 10.00970180505693 0 0 0
198 1 -0.038844330234498514 -12.84521462475321 13.622670361631135 0 0 -1
793 1 -13.218124235641465 -13.908542429573494 11.092295484664968 0 1 0
255 1 -8.741321718792875 -12.046925404437978 10.380903234856037 0 0 0
256 1 -6.227121260186767 -12.454917132627445 10.536163349817071 0 0 0
290 1 -3.842721793962932 -12.472958344427072 10.987306247851082 0 0 0
286 1 -2.980418575325565 -12.604940729823912 8.724454248996123 0 0 0
1320 1 -0.5039104991819823 -12.65925096381167 9.005015781277779 0 0 0
291 1 -1.4705056000188819 -12.710486028611998 11.144741490207162 0 0 0
391 1 -11.792390064517063 -10.037218295514396 8.803949867983656 0 0 0
355 1 -12.916117114337114 -9.74812838964443 10.973513736744296 0 0 0
404 1 -10.383803851729319 -10.033895085755892 11.376367195553849 0 0 0
392 1 -9.36254511229832 -10.061305138308438 9.112495965684731 0 0 0
257 1 -6.849021861061619 -10.394603858680647 9.375358049757073 0 0 0
258 1 -4.445862275208102 -10.482284682640259 9.628096525736721 0 0 0
268 1 -3.3937442754548783 -8.520187599213092 10.920984869921357 0 0 0
260 1 -2.588048408252879 -8.472005249220905 8.710632813509003 0 0 0
292 1 -2.0623314433771682 -10.62674895298419 9.872821231946917 0 0 0
269 1 -1.0862739038878146 -8.766930566903046 11.242047541132878 0 0 0
345 1 -11.473694053727812 -6.115493467996856 8.795123296947361 0 0 0
344 1 -10.915133601468172 -8.02616840635547 10.018600985678036 0 0 0
343 1 -12.444952392649725 -5.8607381736314945 11.072144166472059 0 0 0
333 1 -13.349443192879901 -7.828094715922499 9.637828588897674 0 0 0
406 1 -8.313546211149966 -8.180626987119936 10.433983407336624 0 0 0
346 1 -9.051926955910801 -6.094132380912837 9.03888784921534 0 0 0
407 1 -5.883605553591937 -8.423175108229998 10.68952854431073 0 0 0
408 1 -6.542986106981027 -6.322178546718525 9.323407403827327 0 0 0
409 1 -3.9597960339311378 -6.457731491684633 9.748863567754315 0 0 0
270 1 -1.419395011046717 -6.689234885482184 9.967842903617276 0 0 0
317 1 -13.054727467196368 -3.85862479876252 9.760649806652369 0 0 0
318 1 -10.549344814645348 -4.055308799339441 10.035778929555446 0 0 0
359 1 -8.129947317168469 -4.2003534949057535 10.296521794964361 0 0 0
410 1 -4.622023407155234 -4.554737137773351 8.393009751835072 0 0 0
360 1 -5.680088729555161 -4.292559207260995 10.704186904159135 0 0 0
419 1 -3.202796319866108 -4.494734417211895 10.958951680725717 0 0 0
411 1 -2.2014344598330062 -4.49788942134713 8.79149448834408 0 0 0
420 1 -0.7044639624391547 -4.873772613588244 11.23667679179877 0 0 0
838 1 -13.564423305206754 -1.884680001902053 8.640647240925757 0 0 0
319 1 -11.099672893255121 -2.047283518447392 8.820011128258363 0 0 0
305 1 -11.936809840197215 -1.8295689756297957 10.997135949729591 0 0 0
327 1 -9.603238916315572 -2.115644995352735 11.284975186682976 0 0 0
320 1 -8.691270869246651 -2.0744820418110947 9.049272940206437 0 0 0
329 1 -7.788804766259529 -0.11441403021142271 10.266055345439726 0 0 0
362 1 -3.8088133436353253 -2.4724035115522014 9.650411642427793 0 0 0
361 1 -6.254111426740268 -2.2528619542488 9.396466188701114 0 0 0
330 1 -5.232470506394797 -0.42074317009607043 10.733349171912531 0 0 0
421 1 -1.3082383205998322 -2.5931095653527017 10.04063615005578 0 0 0
369 1 -2.872040321763185 -0.4683891345636493 10.978214700755453 0 0 0
364 1 -1.8458764361900233 -0.5633869137365899 8.781593971918292 0 0 0
321 1 -9.201460919344878 -0.06234060521214069 7.864881433924753 0 0 0
354 1 -12.198393492142003 -11.725222880784806 12.232564116367195 0 0 0
414 1 -9.880270100833977 -12.227577698554374 12.563350424883469 0 0 0
264 1 -7.231820619318874 -12.424969026830286 12.690439849974693 0 0 0
110 1 -6.475965486304514 -10.436778513938702 14.082968663675596 0 0 -1
265 1 -4.907477218199084 -12.513203458802346 13.255746313484417 0 0 0
403 1 -10.79090153271848 -13.97162034864213 11.225611118675596 0 0 0
199 1 -2.439917236527636 -12.713399942989955 13.33127144675438 0 0 -1
100 1 -11.344173564725434 -9.86466450518389 13.587562139171306 0 0 -1