LAMMPS data file via write_data, version 29 Sep 2021, timestep = 0

1860 atoms
3 atom types

-14.222505356149119 14.222505356149119 xlo xhi
-13.80543621433392 13.80543621433392 ylo yhi
-13.919867744448013 13.919867744448013 zlo zhi

Masses

1 55.847
2 1.008
3 1.008

Atoms # atomic

277 1 -11.754155850372676 -12.541022692654924 -13.077712124465213 0 0 1
191 1 -12.654957050070983 -11.92009868446143 -11.02621717383715 0 0 0
269 1 -13.770430497413127 -11.474470840952215 -13.68300978101548 0 0 1
145 1 -9.936631810326045 -11.456691347163385 -12.057421872702575 0 0 0
135 1 -10.564830777206641 -13.264108854528848 -10.47354880007627 0 0 0
89 1 -7.885460568270136 -12.65221636749487 -11.48126677873552 0 0 0
285 1 -7.51370444577161 -10.825770883682202 -13.116956521735338 0 0 1
90 1 -6.219992200716963 -11.257928759626523 -10.429496828936646 0 0 0
17 1 -0.141231443003889 -5.00538165802584 -3.9705630833648904 0 0 0
88 1 -5.348886993510979 -12.04878452843504 -12.7642769519096 0 0 0
693 1 -3.380985101171161 -13.582743999952484 -12.242518423827702 0 1 0
32 1 -3.6241327901953007 -10.880113346586182 -11.700147686972677 0 0 0
31 1 -1.6976390248027364 -12.097335115504267 -11.159981237043453 0 0 0
656 1 -0.7971883015908094 -12.98998567078865 -13.229294352022356 0 1 0
41 1 -2.7514205714695894 -11.667003362462248 -13.789876174119922 0 0 0
274 1 -11.932772263006443 -10.029398222339278 -12.608499148795765 0 0 1
271 1 -12.203032038926722 -7.241713844992255 -12.008921619163008 0 0 1
268 1 -13.954641613288123 -8.689886158748351 -12.982611924260178 0 0 1
146 1 -12.857742998965623 -9.145674871897723 -10.559592645531854 0 0 0
147 1 -10.27235943243151 -8.663286854924884 -11.505772802032663 0 0 0
270 1 -9.398908325602113 -9.500841140393648 -13.651148054063407 0 0 1
93 1 -8.310428508565733 -7.383525503218494 -10.386838250633481 0 0 0
98 1 -7.589299472039603 -8.049704905740551 -12.680286504875983 0 0 0
91 1 -8.18340672299424 -9.871775458609132 -10.973498205156805 0 0 0
44 1 -5.634681651250979 -9.335504605359434 -12.065744014536172 0 0 0
303 1 -5.083373691005741 -7.636848969444139 -13.621959870018616 0 0 1
34 1 -3.9908783768251244 -8.081011762152038 -10.942952847531243 0 0 0
43 1 -3.069786684776995 -8.850434054032322 -13.083039819210676 0 0 0
220 1 -1.0741623921929175 -10.115867760340059 -12.587596987545602 0 0 0
221 1 -1.2778243138601617 -7.591751472361056 -12.021488018158491 0 0 0
33 1 -1.956233638953531 -9.335736442536923 -10.505202106272433 0 0 0
150 1 -12.311248635847832 -4.586533087179774 -11.48225812523237 0 0 0
253 1 -11.557452560690388 -5.2497553071561995 -13.745792716412447 0 0 1
280 1 -9.577957638123484 -6.738050124827977 -13.046089475190536 0 0 1
149 1 -10.45721671763043 -6.09868892673478 -10.855989282855187 0 0 0
237 1 -9.810590789045749 -3.8700133887717367 -12.579548422264846 0 0 1
99 1 -7.896274912127813 -5.330319435460735 -12.10150177242717 0 0 0
94 1 -6.2542430508914295 -3.981001851517206 -10.837824863377795 0 0 0
92 1 -5.781071705783422 -6.6385940007602535 -11.409088257993302 0 0 0
46 1 -5.301718377790131 -4.712947627819007 -13.162311499038944 0 0 0
45 1 -3.326363786832969 -6.271469702105903 -12.599944109569236 0 0 0
229 1 -0.7466244589344821 -5.581167154856443 -13.621554931302759 0 0 0
222 1 -1.6317483301030808 -4.898231433114097 -11.446760214096779 0 0 0
728 1 -13.935410287713317 -1.278469020914665 -13.423994757289735 0 0 1
100 1 -11.904222042789723 -2.4808328860322977 -13.092924476066628 0 0 0
195 1 -12.604038821623142 -1.755605081265296 -10.853568060118647 0 0 0
102 1 -10.124796735250204 -1.0966416862687023 -11.975301576690837 0 0 0
101 1 -8.02223851073774 -2.5802354176757625 -11.499902753861585 0 0 0
720 1 -7.535372343174448 -0.5998206891122368 -13.019589777605924 0 0 1
238 1 -7.2548275883569975 -3.326470308812702 -13.665508998553301 0 0 1
47 1 -3.5349969297874697 -3.356699871885148 -11.891092145816346 0 0 0
48 1 -5.704388277354525 -1.9266231108316365 -12.542153988791398 0 0 0
49 1 -3.6333772825930826 -0.7482247592960132 -11.449354885815113 0 0 0
232 1 -2.9227435213018254 -1.5066884627081425 -13.535960720044091 0 0 0
231 1 -0.946288914437309 -3.0291072595763975 -13.113810102704218 0 0 0
223 1 -1.8791113872262777 -2.103991931444824 -10.885606613125562 0 0 0
224 1 -0.08701491925401683 -0.766437261572543 -9.765358328111137 0 0 0
182 1 -13.500562877408779 -10.973032915413787 -8.879289029993451 0 0 0
491 1 -5.78315705724091 -13.764379922011466 -6.417425263233192 0 1 0
181 1 -11.463641540683048 -12.268018927340371 -8.417145339481541 0 0 0
136 1 -8.739124545045758 -11.794475895339271 -9.399593053466106 0 0 0
127 1 -9.71086974999648 -11.006597920955235 -7.228039128613013 0 0 0
137 1 -10.94831699287329 -10.59059962907894 -10.01548648201833 0 0 0
79 1 -6.81417353117766 -13.266506679880711 -8.971095451715232 0 0 0
126 1 -7.026693309470779 -10.587892935730448 -8.309602026854199 0 0 0
78 1 -4.17732043021201 -12.718660800860837 -10.154366475250425 0 0 0
69 1 -4.9474112351374195 -11.928178207641379 -7.942531959353754 0 0 0
68 1 -3.030060835437931 -13.339969152806187 -7.33829751209983 0 0 0
22 1 -2.453473482644812 -11.337194787050514 -9.021344046437164 0 0 0
21 1 -0.6188220322525879 -12.740287034913711 -8.32022829811817 0 0 0
184 1 -13.596103910499592 -8.443835058528098 -8.229681666369586 0 0 0
183 1 -11.656407196563263 -9.612753150264682 -7.7281497049883 0 0 0
141 1 -11.854076660774595 -6.914635442688101 -7.231048690837798 0 0 0
139 1 -11.1156660011047 -7.89804250494667 -9.392032352400573 0 0 0
138 1 -9.041728964055324 -9.094617004028688 -8.826717370294158 0 0 0
81 1 -6.402292046540392 -8.617784960397792 -9.837831243129173 0 0 0
128 1 -7.241194942327773 -7.832351994398659 -7.708501619448356 0 0 0
80 1 -4.343694055055984 -10.039414556593309 -9.469789853104489 0 0 0
71 1 -5.323031660111166 -9.183756924967708 -7.244510107685414 0 0 0
82 1 -4.667222864805 -7.249039984617229 -8.669688916581286 0 0 0
216 1 -0.21407164063610473 -8.051422178387526 -9.385584184907334 0 0 0
24 1 -2.731885606709044 -8.571723119525046 -8.269025379167518 0 0 0
23 1 -0.8290348685593187 -9.971982223312818 -7.817823680608336 0 0 0
25 1 -0.9697959900448758 -7.176891629588007 -7.280611408321318 0 0 0
194 1 -12.930645879417133 -6.362240551755321 -9.804317041596313 0 0 0
177 1 -13.86927988845271 -5.484171656402156 -7.759635582397081 0 0 0
186 1 -13.073517518903635 -3.7028878347713086 -9.311763142130008 0 0 0
142 1 -11.17212602021224 -4.91603233489537 -8.872461572169815 0 0 0
140 1 -9.201905751196012 -6.415626260549153 -8.340790725880934 0 0 0
95 1 -8.648279838501356 -4.422320947217159 -10.03224535367883 0 0 0
131 1 -9.461315684370485 -3.6141075897049397 -7.7096529946090975 0 0 0
83 1 -6.612801738291317 -5.902285839232643 -9.269628200366801 0 0 0
85 1 -7.52159765321409 -4.993965938341008 -7.211687155176133 0 0 0
36 1 -4.196974364236329 -5.3410146245429715 -10.283276822418742 0 0 0
84 1 -4.912778648597559 -4.285698163132885 -8.337167739137225 0 0 0
26 1 -2.999262859753534 -5.6820087513922495 -7.752675294236054 0 0 0
217 1 -0.37653315175749036 -5.291828927112128 -8.762666846801185 0 0 0
35 1 -2.231497064862797 -6.711863541619792 -9.833728362561983 0 0 0
37 1 -2.2955522289056365 -3.869967039957851 -9.206457759256516 0 0 0
188 1 -13.562547751886523 -1.0170900014886861 -8.7306892531793 0 0 0
187 1 -11.36250894184873 -2.2592194740860645 -8.159353279258404 0 0 0
151 1 -10.724409371975623 -3.1838240900959214 -10.406990116136758 0 0 0
143 1 -10.843867798679367 -0.43739087153713463 -9.73592186219961 0 0 0
97 1 -8.969995111490299 -1.894439967002569 -9.349654256274661 0 0 0
133 1 -9.764313200614977 -0.91512516892627 -7.140947173259521 0 0 0
50 1 -6.45050438663256 -1.2213036272674245 -10.282069585764443 0 0 0
87 1 -7.239373741269893 -0.27109625991947084 -8.076866318500489 0 0 0
96 1 -6.937262354160238 -3.1236380710510456 -8.773944507072606 0 0 0
38 1 -4.454898383454447 -2.4201885521061843 -9.906127599217747 0 0 0
86 1 -5.166280859526749 -1.6587430050275973 -7.670257427956347 0 0 0
28 1 -3.2137145112188463 -2.989102671528295 -7.1721843194526045 0 0 0
732 1 -7.155518052929126 -13.568080720249293 -13.88930963442131 0 1 1
39 1 -2.493228121057413 -1.2772943667962942 -8.76176462763472 0 0 0
218 1 -0.5650477862659411 -2.5612034710855767 -8.138914359183076 0 0 0
173 1 -12.309615557171353 -11.546522760557158 -6.219520362025664 0 0 0
203 1 -12.891427547110172 -13.371677207690519 -4.702754240069396 0 0 0
210 1 -13.116185245577975 -10.638802508008476 -4.064789761295156 0 0 0
172 1 -10.34891727752871 -12.910819960416267 -5.813163419039364 0 0 0
164 1 -11.021223313035197 -12.196952818911893 -3.7310464665024714 0 0 0
115 1 -8.524730553466844 -11.50558773468382 -4.569391717358792 0 0 0
124 1 -7.735406599166983 -12.387158146656127 -6.81245859535445 0 0 0
106 1 -6.622942098011567 -13.051854377177637 -4.190062322044248 0 0 0
116 1 -5.866661225675847 -11.09034403451348 -5.677531490153781 0 0 0
59 1 -3.923198668011384 -12.42211487201187 -5.084537937822631 0 0 0
70 1 -3.3900656695077505 -10.554626266091715 -6.719443088168512 0 0 0
13 1 -1.4163394566403067 -11.931061500028715 -6.210034385227814 0 0 0
60 1 -2.1849212063772914 -11.06672144741967 -4.0225558101265015 0 0 0
8 1 -0.09216957515222823 -12.36386144757161 -3.6195867873135086 0 0 0
175 1 -12.46132149477112 -8.785546863796247 -5.62709790306449 0 0 0
174 1 -10.600090113869484 -10.189679230465131 -5.177795838070196 0 0 0
129 1 -9.803506665259327 -8.190517119083392 -6.6113351036235555 0 0 0
166 1 -10.743192270276722 -7.419482548246377 -4.689138119693116 0 0 0
119 1 -8.7861301819416 -8.961044542391399 -3.985606155095729 0 0 0
117 1 -7.830741180426366 -9.680094744625599 -6.190313536701121 0 0 0
118 1 -6.191324124581138 -8.28589324428166 -5.127955973551748 0 0 0
130 1 -8.10681401795311 -6.856614338622278 -5.560452597646014 0 0 0
108 1 -6.7523881643759625 -10.292601310328731 -3.542207735037854 0 0 0
72 1 -3.562072280287774 -7.802226482042027 -6.092134017488617 0 0 0
61 1 -4.239696908756491 -9.623406676130195 -4.667234079757392 0 0 0
63 1 -4.381579324187859 -6.943903591751768 -4.0032444410918835 0 0 0
14 1 -1.592640881963808 -9.218986223910736 -5.675432819114347 0 0 0
62 1 -2.405623892456738 -8.348669579505437 -3.5448585926678433 0 0 0
185 1 -12.085341572373316 -4.210887902175783 -6.646799991963558 0 0 0
211 1 -12.715349135906186 -6.063391742638337 -5.27053152224884 0 0 0
176 1 -10.127810682637286 -5.562247458552061 -6.152858952904815 0 0 0
168 1 -10.997480459903235 -4.566680004779 -4.082950326160335 0 0 0
121 1 -8.387261058067802 -4.1783450427224835 -5.165203744041863 0 0 0
120 1 -6.426916902625568 -5.579112955821001 -4.355756373163867 0 0 0
75 1 -5.802069411655058 -3.5802063511909896 -6.125923404846662 0 0 0
73 1 -5.703125150423217 -6.4017072962409385 -6.566023985093834 0 0 0
74 1 -3.8393911285010205 -5.10320581481569 -5.556403808681523 0 0 0
1 1 -3.157374627838225 -0.10572872028792801 -1.6685571182736538 0 0 0
27 1 -1.2794749447700955 -4.340792351014597 -6.560879256847411 0 0 0
16 1 -1.8752978654172239 -6.5163109082426915 -5.124250414171323 0 0 0
18 1 -2.0234426995420876 -3.637527568190764 -4.347942237329379 0 0 0
212 1 -12.835551909256786 -3.3622139996127487 -4.640282320756379 0 0 0
179 1 -12.246726643866033 -1.3371008646782556 -5.926680640981337 0 0 0
7 1 -13.168346332615096 -0.6082970442419864 -3.908196645293838 0 0 0
213 1 -14.034182757849642 -12.882817262759831 -7.256775621729439 0 0 0
178 1 -10.365920686335855 -2.7668989893396976 -5.5631870380712325 0 0 0
123 1 -8.610635722663192 -1.4817089582877987 -4.56384063933376 0 0 0
132 1 -7.773451210971334 -2.2363635207489097 -6.730774920689758 0 0 0
122 1 -6.638591487665281 -2.7699000340490194 -4.052446187425941 0 0 0
77 1 -6.0672171909541674 -0.8604821635864379 -5.505837138049129 0 0 0
30 1 -3.4238706683708333 -0.5291685312372945 -6.610312700542085 0 0 0
76 1 -4.072032390664884 -2.2846694748146117 -5.006446353763611 0 0 0
19 1 -0.3624488436620741 -2.2452987993179896 -3.32027082933584 0 0 0
29 1 -1.3704485852714523 -1.6676034275308727 -5.904406260587615 0 0 0
20 1 -2.5013268768862655 -1.0030873476568267 -3.82804280955966 0 0 0
204 1 -13.795370408176941 -12.600045824822203 -2.5555468359799374 0 0 0
199 1 -11.930018681168033 -11.33449294926743 -1.491645596118202 0 0 0
153 1 -9.073258191746078 -13.472800125192274 -3.1759178188637716 0 0 0
163 1 -9.421073080118688 -10.811093350267761 -2.4168473322681496 0 0 0
412 1 -10.005498862226283 -12.728876689501247 -0.8890585821530657 0 0 0
154 1 -7.408268146737961 -12.2845770765213 -1.99755258812581 0 0 0
109 1 -5.638838820855886 -10.7991982838991 -0.9237503152094728 0 0 0
107 1 -4.721260644899587 -11.725753585998046 -3.042408103609315 0 0 0
103 1 -5.342368643691664 -13.507755395562043 -1.4231575471784126 0 0 0
455 1 -3.6627776052659957 -12.062122852891445 -0.2987649896066973 0 0 0
52 1 -2.7386492718547863 -12.949270704437438 -2.494962354494472 0 0 0
53 1 -0.9665903264471147 -11.505667738880902 -1.514009694153085 0 0 0
205 1 -13.349891070202291 -7.968370382623892 -3.540474389835401 0 0 0
949 1 -14.052098935682908 -2.978014054922575 -7.143655004330654 1 0 0
198 1 -14.109143087615335 -9.789718345750527 -2.038158723664356 0 0 0
200 1 -12.213679293582246 -8.563119052668867 -0.83125676385826 0 0 0
165 1 -11.308876588154355 -9.388209067470784 -2.99181467040008 0 0 0
157 1 -9.602334072498206 -7.8827533772597596 -1.9944834214473364 0 0 0
155 1 -10.148675687939487 -9.940708409979067 -0.3672357671387836 0 0 0
110 1 -6.949729021238539 -7.530564462707822 -2.953444969013452 0 0 0
156 1 -7.661620365280528 -9.365111492260095 -1.3832868546653678 0 0 0
449 1 -5.903949432814267 -8.135219083433928 -0.19589408453724033 0 0 0
54 1 -2.978610151868274 -10.289545104196815 -1.8653255380975509 0 0 0
105 1 -4.933991050588077 -8.976491110115258 -2.4748127621515685 0 0 0
56 1 -3.1842266603170533 -7.613115062738742 -1.3166659195627766 0 0 0
9 1 -0.3349541917989871 -9.684647959078081 -3.060095443158744 0 0 0
55 1 -1.0865038827317157 -8.850814361471151 -0.9091880304758195 0 0 0
201 1 -13.561456853641538 -5.304759601993709 -2.992768434851781 0 0 0
400 1 -12.33777552443323 -5.886723195789739 -0.2919467088192853 0 0 0
208 1 -11.743184043188386 -3.8891588993761097 -1.815107373693282 0 0 0
207 1 -11.601241355128266 -6.593981994213586 -2.532434195748422 0 0 0
167 1 -9.088681998602812 -6.053103875107843 -3.5360860040088102 0 0 0
159 1 -9.764639336807383 -5.254496567527564 -1.3325867144329475 0 0 0
160 1 -8.19962058058103 -3.776882693091446 -0.18209054361403432 0 0 0
158 1 -7.78127300416086 -6.659735018533053 -0.7976553862729272 0 0 0
112 1 -7.339557335805942 -4.737539452635959 -2.4195099902641513 0 0 0
65 1 -4.62631924327729 -4.131294974251153 -3.438194354500725 0 0 0
57 1 -3.456328704949687 -4.825874779157196 -0.8625744516439955 0 0 0
111 1 -5.235435614238925 -6.124876480970639 -1.8030442106939564 0 0 0
113 1 -5.53418297974776 -3.4823240243006524 -1.2626696282921763 0 0 0
10 1 -0.665501601795123 -6.9461804975225165 -2.4153085415497877 0 0 0
64 1 -2.6150238224052185 -5.626411720742398 -3.021440830612553 0 0 0
356 1 -1.4419382953306368 -6.096747727049984 -0.26715910766491113 0 0 0
11 1 -0.9682166579931852 -4.325191481739298 -1.7158758880049625 0 0 0
6 1 -12.163015925133369 -1.2370948583958956 -1.267811863878146 0 0 0
1161 1 -13.74718689876953 -2.5520232353899086 -2.5934573604675695 1 0 0
170 1 -11.251435768168324 -1.9180718477371492 -3.374356759364934 0 0 0
169 1 -9.179368300956483 -3.3865844133669096 -2.9181319730474353 0 0 0
161 1 -10.062234766351434 -2.3961488824030646 -0.7639345028411064 0 0 0
4 1 -9.421313928725523 -0.5279068108134481 -2.3318246653102044 0 0 0
114 1 -7.474479451971255 -1.930106233732939 -1.8373289910780812 0 0 0
2 1 -5.7368847804099214 -0.6992336717742127 -0.6984089942889753 0 0 0
1860 1 -1.16606433931684 -1.5820152376529428 -1.2430257202241073 0 0 0
66 1 -2.9115212960750956 -2.845986988457769 -2.2974877676851815 0 0 0
67 1 -4.869714067325033 -1.5697603991836662 -2.8073471294413253 0 0 0
58 1 -3.758149398984168 -2.0923761579909534 -0.11887718574670636 0 0 0
148 1 -14.126677485577785 -5.899804928062023 -12.373189272272135 0 0 0
669 1 -1.9134517062903509 -13.750319708584648 -4.595424096614435 0 1 0
125 1 -9.515897369628103 -13.742257730983711 -7.973834176743386 0 0 0
3 1 -6.734382986930994 -0.05273355182228201 -3.4217269272797086 0 0 0
233 1 -1.131777654433419 -0.1502066431252409 -12.46921987236611 0 0 0
1150 1 -0.008876578881919173 -10.793059598711782 -9.958273918489649 0 0 0
180 1 -13.343890844223393 -13.789217433858369 -9.52940958994764 0 0 0
414 1 -13.372874757088042 -12.432211518651185 2.3059029921998153 0 0 0
405 1 -11.518369067053541 -11.052792555847125 3.3081826341729474 0 0 0
845 1 -1.5771475696790702 -13.429173975479571 0.12915473683007583 0 1 0
407 1 -12.787340238611973 -10.454938146713658 0.5902322251067051 0 0 0
916 1 -12.582040444708667 -13.215421486305553 0.11516165577207893 0 1 0
411 1 -10.710916909657179 -11.783051701254122 1.1837013041696007 0 0 0
416 1 -8.805605954655892 -13.297229189160015 1.7308462156700894 0 0 0
439 1 -8.943992730548768 -10.538654796787416 2.388924761586118 0 0 0
577 1 -6.231153188908699 -12.725894342722023 0.6926932702618895 0 1 0
444 1 -7.014680510285619 -12.093867920321053 2.84878038164738 0 0 0
440 1 -8.220380032552022 -11.38626880448038 0.1221995491954555 0 0 0
104 1 -4.453115929386364 -11.364186860631076 1.741108833519771 0 0 0
443 1 -5.087900272310753 -13.271271636746846 3.231978424765675 0 0 0
828 1 -2.4823311043833147 -12.575616999499461 2.1287216424448516 0 1 0
459 1 -1.783015718063366 -10.68679950801925 0.6281135999841148 0 0 0
352 1 -0.798595942898233 -11.239243473633504 3.274387532471181 0 0 0
51 1 -4.842281929927594 -0.16896191335511368 13.79899805931991 0 0 -1
398 1 -13.134137189143303 -7.783280311042112 1.1606598779483797 0 0 0
1176 1 -13.776736083378065 -9.946938088502337 2.8137555701299917 1 0 0
441 1 -10.940609926354862 -9.052834211821473 1.733726866755669 0 0 0
434 1 -9.23437521251061 -7.826257355780062 2.8169302546109307 0 0 0
436 1 -10.359340571520285 -7.167985154123202 0.1695854295595094 0 0 0
435 1 -8.440843725576268 -8.547486210502164 0.7819823058394615 0 0 0
453 1 -6.437508358623278 -10.046822653159492 1.3152955605002177 0 0 0
450 1 -6.765271190338041 -7.264066966018557 1.9788425846125417 0 0 0
433 1 -7.255925651663344 -9.13238153601912 3.541016450485035 0 0 0
452 1 -3.967730209480729 -9.516168253878284 0.1874591889120687 0 0 0
451 1 -4.691079744000147 -8.56234023002627 2.4127227047741435 0 0 0
347 1 -2.970244941774732 -7.404095734277201 3.368240015259225 0 0 0
454 1 -2.714235612884348 -10.04534661480246 2.8316805143156607 0 0 0
458 1 -2.096474437020479 -8.06981991411422 1.2215035210418925 0 0 0
252 1 -13.644709293103908 -4.093096352998932 13.728190509402065 0 0 0
392 1 -13.906674310024234 -6.995686820026104 3.2243270351793676 0 0 0
1183 1 -13.311816287082811 -5.042021587077032 1.5603651211239313 1 0 0
369 1 -11.66200444085548 -3.696128520049056 2.854400673805408 0 0 0
399 1 -11.395185563408386 -6.417584975074382 2.290674292197167 0 0 0
431 1 -10.669743672507236 -4.4430889960394655 0.7454577938805773 0 0 0
430 1 -8.58732412940013 -5.819019804936602 1.2930224268643684 0 0 0
429 1 -9.572332565409308 -4.992892518745505 3.4070017111494195 0 0 0
446 1 -6.184706998310576 -5.217217375977725 0.34281105116859756 0 0 0
428 1 -6.960737868248727 -4.417804120235104 2.513699799722005 0 0 0
457 1 -4.168299850989575 -6.761320200232692 0.701632193041501 0 0 0
456 1 -4.239688544439504 -4.088182102766364 1.3511632610242401 0 0 0
448 1 -4.959628946827465 -5.936757387663376 3.0609257367042098 0 0 0
350 1 -0.38172464979861864 -6.7180197085300675 2.2470408922208023 0 0 0
354 1 -2.332829470437698 -5.424869209913746 1.9145331459643185 0 0 0
1292 1 -0.6473882079751974 -4.015648094111645 2.9928910512413864 0 0 0
614 1 -12.90081566585182 -0.34588496840413896 0.7617378152026468 0 0 0
372 1 -13.519180992988368 -2.176298108870519 2.2137109764093594 0 0 0
377 1 -12.629609406750644 -3.162920117180562 0.19337698833417072 0 0 0
365 1 -11.924224712484342 -0.85707625041894 3.4414742664523814 0 0 0
376 1 -10.988814719369957 -1.7635898765002 1.4332881534219801 0 0 0
447 1 -8.962571149273685 -3.161203990556009 2.0118846861515536 0 0 0
380 1 -9.348046467251844 -0.5889285410449823 2.556764385671624 0 0 0
381 1 -8.383409472424763 -1.0971891608335511 0.32596994463488826 0 0 0
379 1 -6.451600781423066 -2.556401604828162 0.9281815748133422 0 0 0
378 1 -7.2190163074384515 -1.7400623525759524 3.030079382890328 0 0 0
929 1 -4.609137815377425 -1.329639032093974 2.0156805346231046 0 0 0
445 1 -5.13268613774053 -3.2175795343690563 3.5041529516955165 0 0 0
12 1 -1.7945150300768393 -3.433853566943476 0.336672504523877 0 0 0
267 1 -2.6241969854906504 -2.638731519888678 2.4727314363000374 0 0 0
722 1 -2.058706505244622 -0.7067020282789258 0.9053111757370189 0 0 0
1170 1 -0.7477805266849327 -1.296442736716159 3.5630533958748423 0 0 0
861 1 -12.500610848497512 -0.1805173644351843 5.803256532732021 0 0 0
383 1 -12.391241687102408 -13.173448960501336 5.095079272231722 0 0 0
889 1 -9.769032438079549 -12.606726884777565 3.776665932949939 0 1 0
385 1 -10.51406463980825 -11.775602659728134 5.988218542915174 0 0 0
415 1 -8.48040798841106 -13.109314087130967 6.623498430961206 0 0 0
409 1 -7.86867635395435 -11.219414064671009 5.085251647337145 0 0 0
442 1 -5.880149621744879 -12.617853247998646 5.515504823012478 0 0 0
339 1 -3.436997531059909 -11.857348531132695 4.34443897402431 0 0 0
338 1 -4.28365399001782 -11.249648048139196 6.6960529039335235 0 0 0
438 1 -5.3225511203492815 -10.51971266039974 3.8420916714815405 0 0 0
827 1 -1.4080754167752172 -13.218475213794395 4.885805185690355 0 1 0
337 1 -1.685704315473501 -10.68951797855014 5.497082457071194 0 0 0
388 1 -12.522494150951417 -10.293690143469183 5.544014851933003 0 0 0
406 1 -11.962633124302547 -8.375865410942072 3.784747402401063 0 0 0
389 1 -12.586889673496673 -7.742690450188109 6.177691765795242 0 0 0
410 1 -9.856860937529806 -9.900926683882961 4.544854237019255 0 0 0
390 1 -10.662038236169643 -9.082992133767746 6.626918517167237 0 0 0
404 1 -10.2100089301541 -7.14329815556796 4.973240957225006 0 0 0
403 1 -8.168182907289403 -8.476250761888922 5.570703092088014 0 0 0
437 1 -6.217192979577572 -9.864215412832284 6.198959549460831 0 0 0
308 1 -6.569380461263529 -7.146536361966986 6.546416431382465 0 0 0
330 1 -5.5633695501145635 -7.789734025469662 4.589376853653935 0 0 0
335 1 -3.6230147815065337 -9.242858026605347 5.070220709627353 0 0 0
351 1 -1.0161084102614897 -8.683072370205206 4.0123114030010285 0 0 0
333 1 -1.8300382645693052 -7.913791468055263 6.202492951255756 0 0 0
397 1 -12.300921401221244 -5.820778240351356 4.460109551357977 0 0 0
362 1 -12.970003413485156 -4.802798431873631 6.6800239272717015 0 0 0
359 1 -14.11326819003083 -1.4140497490153017 9.680362729336004 0 0 0
367 1 -10.480987187397833 -4.391349680149677 5.698707335293413 0 0 0
427 1 -8.494127940059741 -5.659561330458862 6.167663522612369 0 0 0
432 1 -7.6773577446241585 -6.4678589184724204 4.093918439755356 0 0 0
374 1 -7.816377690073676 -3.7451744794968356 4.636828946685888 0 0 0
324 1 -5.883679966911146 -5.119820901580324 5.105945993307202 0 0 0
343 1 -3.1948686517214675 -4.648816889024728 3.992938119193891 0 0 0
346 1 -3.837841408884957 -6.480389425335152 5.550620674681458 0 0 0
342 1 -4.150968694335699 -3.7695279206404635 6.292190773109198 0 0 0
349 1 -1.2746032288170426 -5.9925587876537145 4.4959090520329426 0 0 0
345 1 -2.151398489963663 -5.15219502155273 6.715835043301951 0 0 0
368 1 -12.43021474607525 -2.7443298525355875 5.008742608078915 0 0 0
375 1 -9.874771619243733 -2.381515758816459 4.095529981241626 0 0 0
364 1 -10.582584755230993 -1.5498066419408545 6.445364327949324 0 0 0
373 1 -8.683658404456288 -2.9281040000340877 6.827571387374697 0 0 0
884 1 -8.2126485080237 -0.8637286454142767 5.099437909689481 0 0 0
260 1 -6.092951292453941 -2.3853074762791238 5.614071383683726 0 0 0
799 1 -5.418485883870595 -0.32519167853342523 4.156744973703002 0 0 0
266 1 -3.479110588688826 -1.7997707927004836 4.611620957224982 0 0 0
265 1 -4.352338219130209 -1.1665816285993245 6.7174157911606045 0 0 0
353 1 -1.4834788207489122 -3.1364077202311087 5.102647815625868 0 0 0
264 1 -1.7358951126782696 -0.4551614832110751 5.591573948870053 0 0 0
419 1 -13.286020939988031 -12.290305146862911 7.320500243360986 0 0 0
426 1 -14.047169319265787 -11.640591032933163 9.487236661284182 0 0 0
420 1 -12.033362548842089 -12.824418275938507 9.88068309630168 0 0 0
386 1 -11.306784440976974 -11.030831663509453 8.158998098421499 0 0 0
730 1 -9.354711306196794 -12.43336913744141 8.801902545893391 0 1 0
770 1 -7.345447898446728 -13.739416678660476 9.316628899708743 0 1 0
408 1 -8.718833858990028 -10.42055711417905 7.1662388690911385 0 0 0
314 1 -6.746845608733163 -11.760071279064295 7.661333206864686 0 0 0
293 1 -7.697657087917738 -10.88268348295911 9.84732621538122 0 0 0
862 1 -11.224673038938542 -13.63032838050969 7.707847135128173 0 1 0
318 1 -5.700114248904669 -12.271341026705212 10.381379174529627 0 0 0
317 1 -4.812895752436301 -13.117978996997303 8.134653663460313 0 0 0
316 1 -3.1560304468136593 -11.80754381788631 9.265460612351863 0 0 0
312 1 -5.026530706308845 -10.347061118187579 8.775619263008558 0 0 0
800 1 -2.2608002843527064 -12.549063169101753 7.076425669034304 0 1 0
1243 1 -0.449656330567084 -11.20369517927869 8.086545215997987 0 0 0
1232 1 -1.020020668825243 -13.170692948332494 9.569157418973194 0 0 0
310 1 -1.2851648566816944 -10.655234982667046 10.36540946925859 0 0 0
422 1 -13.294199426615585 -9.48262835362119 7.746416854625 0 0 0
394 1 -11.646763968966539 -8.211625104060746 8.893547367270344 0 0 0
391 1 -12.247228689976522 -10.177873379873812 10.423717713075817 0 0 0
402 1 -9.131294131818748 -7.633575954229624 7.8430055693198995 0 0 0
288 1 -9.679424514571839 -9.692165554909039 9.297596458202893 0 0 0
313 1 -7.23542926513458 -9.034199716273823 8.274476997677382 0 0 0
307 1 -7.928077640194018 -8.354980957316602 10.402072207523013 0 0 0
334 1 -4.588913760865276 -8.470131412766218 7.20920164136562 0 0 0
306 1 -5.31055952135142 -7.675019724240323 9.283301069331568 0 0 0
332 1 -3.34159149749855 -9.104234228306638 9.809116624919021 0 0 0
328 1 -2.7805889665074393 -7.022532639478053 8.279721101728 0 0 0
336 1 -2.4351158111207187 -9.87513586379446 7.70181094003112 0 0 0
331 1 -0.7213430681035522 -8.632237415034052 8.827268245342935 0 0 0
424 1 -13.477757398996262 -6.707825401125225 8.365369246896737 0 0 0
358 1 -13.852194768030992 -4.258865541247481 9.072108253371347 0 0 0
401 1 -11.859221187454036 -5.666647615154419 9.517182186625568 0 0 0
283 1 -9.749245510696923 -6.793987165607006 9.976376811963185 0 0 0
396 1 -11.04900802931503 -6.275444276779652 7.180277869368741 0 0 0
395 1 -9.228589978847019 -4.987652417415733 8.418780421886893 0 0 0
366 1 -11.293492763728494 -3.610429609287271 7.930555519387259 0 0 0
323 1 -6.730733787488541 -4.2487071613541865 7.146916173121099 0 0 0
301 1 -7.322122441087806 -6.373970890497068 8.788464551711826 0 0 0
250 1 -7.653977219057395 -3.5181612230971435 9.379585492280793 0 0 0
329 1 -4.88800035034941 -5.8080109118534216 7.825074072263767 0 0 0
299 1 -5.724914814734381 -4.943917600811686 9.941200149807909 0 0 0
327 1 -3.0117925598677253 -4.51095031153603 8.779191437245721 0 0 0
304 1 -3.59474660683739 -6.33866572967215 10.460691522614763 0 0 0
344 1 -0.3865759395913422 -3.844629925008606 7.713900208314339 0 0 0
325 1 -0.9947948277002148 -5.887452463777288 9.266016564065325 0 0 0
1327 1 -0.1400326213638845 -9.318953369950556 1.752925271849037 0 0 0
319 1 -2.0276891580620546 -2.3528278966263585 12.120576029852469 0 0 0
360 1 -13.229098071551714 -2.1569000858628566 7.415802190552899 0 0 0
361 1 -12.115238720221583 -2.84871888242124 10.040641735874729 0 0 0
860 1 -11.573395531810792 -0.7844865998362263 8.487113875085047 0 0 0
883 1 -8.890065920109535 -0.0529330232623586 7.376508284200121 0 0 0
244 1 -9.51644855692601 -2.0849034560108137 8.890213423503557 0 0 0
259 1 -6.922719442865803 -1.5746493608305556 7.767285884004995 0 0 0
243 1 -7.569914817796548 -0.8060493597757041 9.900404779709895 0 0 0
762 1 -5.135520975390406 -0.29657448890503524 8.910056725500972 0 0 0
258 1 -4.918050372913449 -2.972308408734065 8.465149355254177 0 0 0
340 1 -3.1419236752079502 -1.7189169700390572 9.451038451941933 0 0 0
322 1 -2.319895609879758 -2.423853128550789 7.320836269866906 0 0 0
341 1 -0.6600991641066223 -1.1797076673095255 8.365705610991185 0 0 0
320 1 -1.2332393959160317 -3.2249519231210577 9.992180306345116 0 0 0
421 1 -12.905181088016274 -12.163800261407081 12.035879199186482 0 0 0
387 1 -10.206872353528176 -11.581494663364264 10.921458379579573 0 0 0
292 1 -9.187016123536107 -12.123341597389963 13.4666496866908 0 0 0
278 1 -10.923772204415268 -13.489961579130258 12.572802144317599 0 0 0
273 1 -11.12388577247184 -10.681093844589494 12.98100693066825 0 0 0
276 1 -8.23315934096016 -12.911817168039981 11.417254748446286 0 0 0
290 1 -6.64346482346024 -11.455705943691449 12.48970872421453 0 0 0
256 1 -1.4435026743826587 -0.43538901361139004 10.52854513543489 0 0 0
289 1 -3.893605957288065 -11.050968025881655 11.48043955418095 0 0 0
294 1 -4.491293703059004 -12.889156055137754 13.04119999197026 0 0 0
847 1 -12.400411928462399 -0.17530602540589513 10.75745892964261 0 0 0
315 1 -1.8178096804982928 -12.543425217792915 11.934872008500328 0 0 0
275 1 -13.076881316170011 -9.405080739881416 12.54515119498706 0 0 0
425 1 -12.359324770864498 -7.512498569686591 11.143866595893257 0 0 0
272 1 -11.395305646508412 -8.067856659885265 13.718423797497909 0 0 0
287 1 -10.40735590342554 -8.800826403631634 11.570457823529342 0 0 0
281 1 -8.65083448050668 -7.459109180788204 12.639774872318785 0 0 0
286 1 -8.537164623116176 -10.189985822612872 11.974765796273857 0 0 0
284 1 -6.782329806068752 -8.96553907133605 13.066475076258335 0 0 0
291 1 -5.9376527141495075 -9.616615977383105 10.899692168949297 0 0 0
42 1 -4.7817074843114025 -10.254192248787836 13.586137952064984 0 0 -1