LAMMPS data file via write_data, version 2 Aug 2023, timestep = 0, units = metal

1872 atoms
3 atom types

-13.845458822508956 13.845458822508956 xlo xhi
-14.03928814231616 14.03928814231616 ylo yhi
-14.152101818538389 14.152101818538389 zlo zhi

Masses

1 55.847
2 1.008
3 1.008

Atoms # atomic

83 1 -11.943517913051332 -12.676811648025009 -11.675894513580438 0 0 0
134 1 -10.557833841433215 -12.93544505207933 -13.632193173724168 0 0 0
81 1 -9.222076227273394 -11.669505597242708 -11.888780035551772 0 0 0
133 1 -8.06626670845245 -11.98604051350827 -13.889990634269232 0 0 0
468 1 -5.9878174217102 -13.137180221621255 -13.21301280369845 0 1 0
88 1 -4.52618085033221 -11.94760318429973 -11.44619990620836 0 0 0
92 1 -3.1519367245170535 -12.061584021561144 -13.415465173866952 0 0 0
1025 1 -0.9945100999850052 -13.16977148176524 -12.893442920954827 0 0 0
129 1 -11.29652528392354 -10.53480162900672 -12.424512000161588 0 0 0
122 1 -13.360824683282502 -9.271167768768592 -13.085873549240398 0 0 0
127 1 -8.765806769846613 -9.384698594835578 -12.820434611603963 0 0 0
79 1 -6.57976421385547 -10.568937422461982 -12.129184096693779 0 0 0
77 1 -3.915855568355852 -9.588655030227368 -12.208269826811334 0 0 0
132 1 -5.240063826057968 -10.866217662643038 -14.003742591446201 0 0 0
86 1 -1.8332238516497839 -10.775485348054541 -11.608900997585899 0 0 0
85 1 -0.36047072837487093 -10.95732827670697 -13.566344457500865 0 0 0
75 1 -1.3316873006559184 -8.461562388749702 -12.522476878592922 0 0 0
120 1 -10.871881631995901 -8.20689369047557 -13.32215746472138 0 0 0
167 1 -12.843586789680366 -7.023022514943694 -13.896715508348215 0 0 0
111 1 -11.607405652912735 -5.854577289966382 -12.073216242561422 0 0 0
121 1 -12.198472164095328 -7.984673312262858 -11.340006193311252 0 0 0
118 1 -8.011251492331763 -7.1584328477644545 -13.501469196258126 0 0 0
119 1 -9.514517974126417 -6.9621977676103075 -11.570188112182016 0 0 0
786 1 -7.28734694842021 -13.025773049361735 -0.1370036684575595 0 1 0
125 1 -6.0004487371177175 -8.40429578568973 -12.836015734673335 0 0 0
117 1 -6.814421850716411 -5.852000834760169 -11.671479597395393 0 0 0
331 1 -5.489851921977417 -6.27920091373824 -13.71412371475922 0 0 1
116 1 -3.3399680263519684 -7.304006434493768 -12.924533999182296 0 0 0
123 1 -0.6762765935388941 -6.204255877339571 -13.111201640028147 0 0 0
160 1 -11.011350045537773 -3.547676598658688 -12.956380588973202 0 0 0
162 1 -13.634795789557991 -4.565009518583949 -12.778843415708126 0 0 0
109 1 -8.875873602884273 -4.760039023712277 -12.284271407999475 0 0 0
107 1 -6.187215233086984 -3.6317874439153925 -12.434436443620926 0 0 0
115 1 -4.180454256653608 -4.908644779446444 -11.747856094177292 0 0 0
113 1 -1.6092094327976554 -3.781332450209847 -11.915039203207435 0 0 0
114 1 -2.7875084805650605 -5.12601861784246 -13.778856147857867 0 0 0
74 1 -0.06626939126605258 -7.286709414362064 -10.684416417165304 0 0 0
156 1 -13.128295198294508 -2.295788679914928 -13.56330413342839 0 0 0
155 1 -11.698333965777337 -1.1806238486687697 -11.73307716335306 0 0 0
154 1 -10.35757371598924 -1.3349936296152265 -13.76873189385616 0 0 0
159 1 -8.237115518932466 -2.5011237631800984 -13.157605346789575 0 0 0
152 1 -7.71792647606852 -0.18864541417283043 -13.946429193718819 0 0 0
158 1 -5.594761651524664 -1.4022618771096553 -13.287180878329046 0 0 0
105 1 -3.6241751826076722 -2.7042267464595025 -12.632015638900919 0 0 0
97 1 -4.400607752240521 -0.19284285925917466 -11.435457232208968 0 0 0
157 1 -3.0619782694897566 -0.4093769958745579 -13.43356500525722 0 0 0
2 1 -1.007534168122067 -1.6238674957863495 -12.861931792421823 0 0 0
84 1 -13.246511283455499 -12.520541631968234 -9.684591420629703 0 0 0
136 1 -11.188236838234758 -13.788081255036285 -9.041829068842521 0 0 0
82 1 -10.577436367634274 -11.483888183096383 -9.846917912415819 0 0 0
90 1 -7.3057430393253 -12.777761612141374 -11.247086461275597 0 0 0
138 1 -8.697590837031814 -12.671855836363088 -9.171372572510677 0 0 0
91 1 -9.969104233997106 -13.843713858890474 -10.985766948100096 0 0 0
140 1 -5.982856367206572 -11.494131620406694 -9.504071932289387 0 0 0
94 1 -3.999033383877613 -12.848440732448509 -8.878060068283476 0 0 0
166 1 -10.280746970549334 -5.965896896501148 -14.006391593996417 0 0 0
95 1 -2.4204774488163476 -13.02454432538465 -10.754406853864175 0 0 0
96 1 -1.1604542784409375 -11.825016758192573 -9.060277558430855 0 0 0
73 1 -12.65301381928076 -10.237864660774074 -10.371220421204598 0 0 0
72 1 -11.549109389584567 -8.933714345769776 -8.71208403918662 0 0 0
71 1 -10.058164596853864 -9.224016410751975 -10.823104634628864 0 0 0
80 1 -7.979094166555216 -10.482095025285739 -10.174714560178934 0 0 0
78 1 -5.478008669395059 -9.395386477767879 -10.298692645133398 0 0 0
142 1 -3.2402680150257055 -10.518537569655585 -9.607013164384217 0 0 0
144 1 -0.5134501974350982 -9.504624414710475 -9.786289908056258 0 0 0
61 1 -10.903293141697315 -6.7247936974309335 -9.539215637099261 0 0 0
63 1 -13.696359465949806 -7.884977732968965 -9.15891211220621 0 0 0
69 1 -7.481108784598621 -8.15799027384395 -10.740908003814896 0 0 0
59 1 -8.192923866436306 -5.766571126439356 -9.624607753592697 0 0 0
68 1 -6.075985640835653 -6.828015271657952 -8.988922391186932 0 0 0
67 1 -4.82360613512933 -7.193870420492577 -11.013246950527058 0 0 0
66 1 -3.5613564032904286 -5.901589200625272 -9.201012967817913 0 0 0
153 1 -4.143130392949818 -8.208075405685243 -8.48657432559499 0 0 0
270 1 -10.044658661034504 -2.5487210811719816 -0.13892971843253932 0 0 0
65 1 -2.133760206185931 -6.086628536609968 -11.012276859483146 0 0 0
76 1 -2.5524367799937124 -8.363134871948992 -10.514722872522787 0 0 0
170 1 -1.4622950970968613 -7.178856780297535 -8.618525433502427 0 0 0
112 1 -13.072704441403133 -5.5445025422235865 -10.100391224994656 0 0 0
102 1 -12.330523640949547 -3.314093935629728 -11.02198855713274 0 0 0
110 1 -10.253303681225978 -4.544204744589168 -10.210519272960655 0 0 0
108 1 -7.667696800376272 -3.5894120775226988 -10.48459590472414 0 0 0
50 1 -9.021840979464638 -3.1799681762319523 -8.432481030647399 0 0 0
57 1 -5.521839755145679 -4.6732214264045275 -9.761641805273458 0 0 0
55 1 -3.0072588039494086 -3.66892260764398 -9.973901843481183 0 0 0
64 1 -0.8879154927163455 -4.88108299989706 -9.341848356054504 0 0 0
5 1 -13.273177240150504 -0.8496783890257333 -9.81425997878143 0 0 0
101 1 -11.22825428461083 -2.122858962682324 -9.205104686627966 0 0 0
98 1 -7.04321374263461 -1.3366894361135113 -11.372734198555946 0 0 0
100 1 -9.700206179821102 -2.316367751989162 -11.138920776739946 0 0 0
99 1 -8.381004252105209 -1.1155588753035044 -9.348579773007803 0 0 0
106 1 -4.98641403733731 -2.4337856851788793 -10.623864149681124 0 0 0
46 1 -3.6600366067504755 -1.2513870971567176 -8.760012907495991 0 0 0
48 1 -6.348370090481899 -2.212016986540318 -8.67892788734848 0 0 0
545 1 -9.194555602375184 -0.038174826410818596 -11.997319115906137 0 0 0
104 1 -2.4382468992363755 -1.3881944638130506 -10.755888402171903 0 0 0
3 1 -0.46550147745968573 -2.6658457607916723 -10.110264601542346 0 0 0
135 1 -12.553336298754743 -13.44213208481763 -7.034028549410221 0 0 0
146 1 -11.971436448322114 -11.214363350026778 -7.720775478408022 0 0 0
148 1 -9.888905205136112 -12.26753799458243 -7.157705412193235 0 0 0
204 1 -7.900106242755378 -13.620974127277329 -6.617026531323186 0 0 0
139 1 -7.467506844854539 -11.41720817111802 -7.535320310301513 0 0 0
212 1 -5.342967595209318 -12.69867256217914 -6.985542849947092 0 0 0
200 1 -3.201772532260323 -13.717164383454447 -6.13614848646419 0 0 0
214 1 -2.674243919450717 -11.569864946396493 -7.039696426519278 0 0 0
202 1 -0.4681348179350824 -12.768400562104473 -6.358093942524662 0 0 0
103 1 -13.841536736381444 -3.0860334647999874 -9.03730689604415 0 0 0
147 1 -10.70768474869233 -9.906920277257012 -5.9796885652416325 0 0 0
172 1 -12.868495245941114 -8.74581564535544 -6.598199866755442 0 0 0
145 1 -13.42942034032164 -11.021088627620575 -5.868815029593874 0 0 0
70 1 -9.468851533914487 -10.044630540647908 -8.10983990717893 0 0 0
149 1 -8.140443582725325 -8.98600067530787 -6.0607177713308875 0 0 0
150 1 -6.895529409608838 -9.126385072025313 -8.315303007700653 0 0 0
141 1 -4.63500094405128 -10.354752189859525 -7.611011942804354 0 0 0
228 1 -3.423327741115573 -9.205771882527046 -5.798000086512822 0 0 0
226 1 -6.144228895026629 -10.270566930028334 -5.750818888258554 0 0 0
143 1 -1.9611208251434675 -9.350672285549846 -7.784990300696911 0 0 0
62 1 -12.36629077305944 -6.576474334336546 -7.5231643795196215 0 0 0
174 1 -10.143349352683472 -7.806931296786087 -6.943262795945376 0 0 0
176 1 -7.57332081795958 -6.664621866430844 -7.140252881781377 0 0 0
151 1 -5.422138259439235 -7.976057815960901 -6.4139413324563455 0 0 0
171 1 -0.12848934232408382 -5.897791301307597 -6.799873131700987 0 0 0
230 1 -0.7615942433292169 -8.037114803435502 -6.047637434818256 0 0 0
169 1 -2.8830435089847946 -6.85495514581602 -6.688837313443102 0 0 0
52 1 -11.768828859148911 -4.268459997429762 -8.30413280260329 0 0 0
53 1 -13.016728336814571 -4.081079367778624 -6.331309273912312 0 0 0
189 1 -11.0570202896158 -5.338107542542204 -5.695322183829088 0 0 0
51 1 -10.505272856437838 -3.091352512902409 -6.448519524640449 0 0 0
60 1 -9.663614714328272 -5.430837098664986 -7.757029682348468 0 0 0
194 1 -8.32520315624333 -4.193079076574975 -5.870647650674641 0 0 0
58 1 -6.959914086818452 -4.433275070795927 -7.83131071541342 0 0 0
182 1 -4.887996244633291 -5.718000712827493 -7.154437935104953 0 0 0
196 1 -5.710466275444041 -3.1158446620318614 -5.919130643564195 0 0 0
56 1 -4.30393012618485 -3.413426258884483 -7.896674524883417 0 0 0
184 1 -2.239315716560446 -4.725076902622606 -7.3164325128204535 0 0 0
185 1 -1.0068747859990577 -3.319489270488722 -5.592621741005402 0 0 0
6 1 -12.594500222678276 -1.8734708377877887 -7.177237114446989 0 0 0
8 1 -9.846576910319175 -0.9230967359973992 -7.272894746432055 0 0 0
49 1 -7.776467557909991 -2.0884114746261933 -6.578565604574915 0 0 0
47 1 -5.075213772824602 -0.9845246545622235 -6.848500827835591 0 0 0
54 1 -1.7458368179901793 -2.3301021828512347 -8.100737700406043 0 0 0
198 1 -3.114721307497028 -2.036341095597278 -6.109242754638142 0 0 0
4 1 -0.441256725927353 -1.0546151113213842 -6.394577854348954 0 0 0
137 1 -11.29635623594373 -12.176560298618192 -5.220990570811944 0 0 0
222 1 -12.855684101410919 -11.905872341277952 -3.235871101604795 0 0 0
203 1 -9.29534076902068 -13.494228461570609 -4.587906356295759 0 0 0
37 1 -8.0180071276825 -12.147702789138151 -2.815368385773528 0 0 0
211 1 -6.62969652551866 -12.415371656321442 -4.837048411999865 0 0 0
43 1 -4.52441242202277 -13.613523285135345 -4.2869894872041865 0 0 0
213 1 -3.9703225214741025 -11.364037022630587 -5.033210468929605 0 0 0
41 1 -1.869436451281981 -12.469060959987228 -4.395331315573474 0 0 0
173 1 -12.14103478946181 -9.70544018758498 -4.028995265170046 0 0 0
224 1 -8.597437542831553 -11.154716885978107 -5.314592662668847 0 0 0
223 1 -10.112313283027284 -10.893206209577954 -3.3825629363059697 0 0 0
225 1 -7.358291135959961 -9.774555695414957 -3.5944145648336896 0 0 0
216 1 -9.62698283283097 -8.629717531644337 -4.234871860401178 0 0 0
227 1 -4.861391804415275 -8.785041304010683 -3.8587435705536723 0 0 0
35 1 -5.3122536838362375 -11.030760892518638 -3.120970909570328 0 0 0
15 1 -1.020438388109941 -1.823854249353074 -1.834586875302099 0 0 0
33 1 -2.7023244327149776 -9.953582411221838 -3.156236596141044 0 0 0
220 1 -1.3058296212978977 -10.284391571171264 -5.238062639311268 0 0 0
187 1 -11.74733925573244 -7.553996008458763 -4.917857811550098 0 0 0
192 1 -13.140609422040137 -7.3278642757592705 -2.8519092022944683 0 0 0
538 1 -1.1330085476269218 -0.10347300541919324 -8.948558602519288 0 0 0
190 1 -10.372860519863137 -6.213093391835433 -2.938543573898416 0 0 0
175 1 -9.04329808221495 -6.484406080193994 -5.049949079578999 0 0 0
210 1 -6.929865490716175 -7.6001072209192575 -4.427057205940262 0 0 0
208 1 -4.2284136360299325 -6.570700209919129 -4.681867232281093 0 0 0
229 1 -2.1732676329600498 -7.745228168322083 -4.053480861034982 0 0 0
206 1 -1.6391013225850557 -5.604067095161314 -4.9203704962828105 0 0 0
188 1 -12.414035337806224 -5.154947895565595 -3.7213280414012946 0 0 0
193 1 -9.824677047479206 -3.957841139934695 -3.8938283527669455 0 0 0
179 1 -7.792168176176097 -5.195754684853975 -3.1419465815089733 0 0 0
195 1 -7.148369632155783 -2.9667699706154327 -3.9689806269785652 0 0 0
181 1 -6.383175107670823 -5.432853701717651 -5.189960443119787 0 0 0
177 1 -5.114395049324251 -4.079575662128338 -3.3835400442342802 0 0 0
183 1 -3.8021684793921793 -4.294570763867824 -5.458120994603592 0 0 0
30 1 -2.359748970616762 -3.1613475692089814 -3.7262339587095106 0 0 0
205 1 -0.30657617796085823 -4.219831981894297 -3.161395035312946 0 0 0
207 1 -2.951925942559379 -5.307367883848476 -2.9102092247299556 0 0 0
10 1 -12.024997787241011 -2.8564739550501184 -4.509410957637709 0 0 0
669 1 -12.691867585309446 -0.22141919493500772 -3.299121292359267 0 0 0
7 1 -11.339992231302318 -0.5195056176646382 -5.208455102454833 0 0 0
11 1 -10.652741993109895 -1.6438416803150613 -2.746530743810144 0 0 0
12 1 -9.275934318636175 -1.7861042947450123 -4.6866608252247755 0 0 0
13 1 -7.915179655441026 -0.46070539189459403 -2.8434666377049176 0 0 0
14 1 -6.57279201933243 -0.7759940533478105 -4.759983250536836 0 0 0
197 1 -4.46691474296969 -1.7774239231839744 -4.11976225355016 0 0 0
199 1 -1.7047118120519418 -0.7897038091149806 -4.38732148284414 0 0 0
38 1 -10.68929456536091 -13.213405801027191 -2.6673414632438703 0 0 0
39 1 -12.046937050772268 -13.047271646930405 -0.6804568406499563 0 0 0
883 1 -13.195519172168975 -13.978876590509929 -13.54196899701587 0 1 1
347 1 -9.523185305172465 -11.9179257489226 -0.8821240117765505 0 0 0
345 1 -4.674523974540758 -11.953599837613991 -0.3918075951315263 0 0 0
44 1 -5.872798360192459 -13.434034812542777 -2.3483853738570843 0 0 0
42 1 -3.2958674452793435 -12.233634833325414 -2.358037664720209 0 0 0
22 1 -1.1547776317988223 -13.521369198384075 -1.8278680947220316 0 0 0
221 1 -11.505904948710894 -10.678472141565567 -1.3739389350707238 0 0 0
218 1 -13.674415748339088 -9.594581103792436 -1.9919804309188098 0 0 0
28 1 -8.871422780271754 -9.614171079772294 -1.6199615404566234 0 0 0
36 1 -6.737824551426075 -10.928067695357775 -1.022457234935878 0 0 0
34 1 -4.072193728223997 -9.73960980703777 -1.2829978907563149 0 0 0
27 1 -6.203376817998522 -8.531637514851965 -1.8494878204176342 0 0 0
40 1 -0.7301791605140338 -11.169084476832317 -2.6264466730718663 0 0 0
1006 1 -1.9695960714058725 -10.908622910619492 -0.6917587672108372 0 0 0
32 1 -1.4361329704060655 -8.547529318178345 -1.4778918442017055 0 0 0
217 1 -10.956763916248825 -8.511811303928473 -2.217243797932136 0 0 0
219 1 -12.409687941385776 -8.17391766845384 -0.32930792432681777 0 0 0
191 1 -11.79824116401595 -6.081141612068138 -1.0974380548345728 0 0 0
215 1 -8.22251993764266 -7.502240456305757 -2.388724065589356 0 0 0
246 1 -9.735277523499851 -7.219173834565993 -0.4368824180132407 0 0 0
251 1 -7.111191277474664 -6.198964029425617 -0.6666146031677105 0 0 0
93 1 -6.618428055524055 -13.800018305449793 -8.65762631594249 0 0 0
209 1 -5.6834815494625825 -6.386120573376102 -2.727782349480499 0 0 0
26 1 -3.678070213853818 -7.519431046371475 -2.102965034090092 0 0 0
380 1 -2.231510014363904 -6.240512708378066 -0.2602220949690146 0 0 0
25 1 -0.8479012682522971 -6.483772611230637 -2.345620495131959 0 0 0
17 1 -11.221524973936063 -3.848194568544434 -1.8942431419690866 0 0 0
20 1 -3.1079267239600714 -0.5811600276950486 -2.390053407629102 0 0 0
180 1 -9.167401471550559 -5.061191394592914 -1.2633191762825735 0 0 0
359 1 -4.414286859062747 -5.085957522408171 -0.895263250187746 0 0 0
250 1 -6.480103468412009 -3.89384162883216 -1.3840415376554258 0 0 0
23 1 -1.7373866620022262 -4.0097004351534355 -1.1333938704985869 0 0 0
21 1 -12.083568872216464 -1.3150668386967208 -0.7209156443535072 0 0 0
9 1 -13.31221210881035 -2.643115841132868 -2.5097595538818958 0 0 0
16 1 -12.72456771832528 -3.5603978395836844 -0.054332923442013126 0 0 0
18 1 -8.562191340921512 -2.7109647039905127 -2.0746234695675536 0 0 0
261 1 -7.345345838053102 -1.4576737250234473 -0.20737204107911644 0 0 0
701 1 -9.409463535589332 -0.2936441252938682 -1.0545212833855775 0 0 0
178 1 -3.755722896991246 -2.858326330409886 -1.7938220772523028 0 0 0
19 1 -5.834877027871794 -1.670970978966002 -2.062452645027191 0 0 0
258 1 -4.6144724648351065 -0.289770912270205 -0.4645765387414347 0 0 0
1 1 -0.010194274080145505 -4.0686708755200875 -14.013279732830727 0 0 0
365 1 -4.925906917380768 -7.28581413866236 -0.10228289600345697 0 0 0
201 1 -1.7434056849183168 -13.992396224175934 -8.15126825594318 0 0 0
350 1 -10.886584312857858 -11.666197930385094 1.1223878912431235 0 0 0
351 1 -13.593996158422376 -12.732484454483414 1.3591224992784046 0 0 0
164 1 -7.471385016024712 -4.862149211122247 14.092113267679272 0 0 -1
796 1 -8.698298981421416 -12.81494263466238 1.6745420427704332 0 1 0
839 1 -6.0605217404046146 -11.674364230971154 1.643680810761209 0 1 0
344 1 -4.024725667369564 -12.970755752707358 2.1199236890366944 0 0 0
366 1 -7.597236323858565 -8.389681001508045 0.09051983282527587 0 0 0
355 1 -1.3674397013482675 -12.016056705945996 1.975261475846649 0 0 0
343 1 -2.57244803517521 -13.164072299145412 0.17259768749203097 0 0 0
249 1 -11.7438857146952 -9.253039094663219 2.3190677971785707 0 0 0
29 1 -12.866144630704248 -10.434655179336279 0.5072489797657447 0 0 0
247 1 -10.32408336008389 -9.450160281988868 0.32810503064942154 0 0 0
370 1 -8.191031086983054 -10.649132485854263 0.8700017085357459 0 0 0
1392 1 -13.620416988349277 -11.21800647720751 5.194980636233703 1 0 0
371 1 -9.565491242601091 -10.447035310662773 2.829160406012905 0 0 0
346 1 -5.516289602378167 -9.496980420216818 0.7347178023133054 0 0 0
357 1 -3.491544606373866 -10.731517720116852 1.379147860008887 0 0 0
352 1 -0.8045157099467328 -9.724907105026274 1.1501875219837796 0 0 0
353 1 -2.8844427503870396 -8.50774055849704 0.4286191538228401 0 0 0
248 1 -11.1145332476719 -6.974890856616357 1.4829808078905469 0 0 0
1221 1 -13.280682770445292 -5.899922182529339 0.9630071551607386 1 0 0
165 1 -2.516350255653652 -1.5108438813480785 0.1681290732650531 0 0 0
253 1 -9.055527970391683 -8.107956213271319 2.1710452200702637 0 0 0
252 1 -8.481395596820803 -5.922429099720869 1.3644029102786916 0 0 0
394 1 -4.324572490596717 -8.285619077588333 2.469980119124754 0 0 0
402 1 -6.453818587949084 -7.055920368760846 1.9072143750557249 0 0 0
386 1 -3.6039618418308397 -6.0514664491017145 1.76452550823557 0 0 0
379 1 -1.5838061518358284 -7.280165408469201 2.2400032453551884 0 0 0
1282 1 -0.1988900204107722 -7.425899705471004 0.30816013193338954 0 0 0
273 1 -11.917466433161787 -4.484312997730248 2.7596274049257605 0 0 0
255 1 -10.59866088796695 -4.741974498902131 0.7736990406759805 0 0 0
268 1 -9.232934579893119 -3.4521372045773795 2.614694382553287 0 0 0
264 1 -7.9134969417215455 -3.5927487502760123 0.5273705531663744 0 0 0
387 1 -5.867729011623801 -4.908119028848811 1.0588251869694627 0 0 0
24 1 -3.2018116057217245 -3.8859346585792665 0.8961215367155138 0 0 0
422 1 -1.029298554758677 -5.043609702226732 1.5975720326558331 0 0 0
276 1 -6.286866569951006 -0.464286432051777 12.356364315448085 0 0 0
269 1 -11.29833381999781 -2.247180799475432 1.8923028628617384 0 0 0
1319 1 -13.422507559819216 -1.0760546901145815 1.2613416886198987 1 0 0
265 1 -8.664111173818803 -1.2255280773694235 1.7638772684402113 0 0 0
260 1 -5.961645514569578 -0.0508314054958543 1.5113691127985351 0 0 0
262 1 -6.595581908568398 -2.322062037938929 2.2726025739882463 0 0 0
231 1 -4.064858910258678 -1.263128499200441 2.1593980661768395 0 0 0
259 1 -5.126062304882586 -2.561479511933568 0.392509952334537 0 0 0
420 1 -0.5659843243108664 -2.731047466624318 0.7268415375486672 0 0 0
244 1 -1.2495911452504291 -0.3904720730481781 1.8710850814168172 0 0 0
423 1 -1.9524998911467133 -2.450078071114568 2.651706761516971 0 0 0
382 1 -0.09268059609988732 -10.694469480446232 3.7659113798259067 0 0 0
375 1 -12.799514584771664 -13.730805393860209 3.9902624792197248 0 0 0
374 1 -12.321966102471237 -11.456440107082702 3.120670181138694 0 0 0
339 1 -2.8053497597587 -0.05228405218568355 3.8738532749742607 0 0 0
837 1 -8.079742720453199 -13.735062433505085 4.172893630250686 0 1 0
373 1 -10.132299853666144 -12.726654297004503 3.711482970277645 0 0 0
364 1 -7.571177775113249 -11.547588386136953 3.5939561695304096 0 0 0
368 1 -8.969990821226931 -11.372590360223143 5.500692258552798 0 0 0
830 1 -5.336491619178009 -12.798384013497696 4.16730448020771 0 1 0
356 1 -2.8068646033891476 -11.81325901683514 3.9550042910124095 0 0 0
354 1 -0.7113613231498164 -12.950415362457985 4.561125447572222 0 0 0
186 1 -12.429111332493434 -0.08636538144510375 14.015869876597128 0 0 -1
1379 1 -13.276343048701886 -8.909804115682327 4.307724193701651 1 0 0
376 1 -10.966858050356718 -10.185899945825124 4.65881614688473 0 0 0
455 1 -8.455446481808742 -9.096697023010261 4.749657979476128 0 0 0
363 1 -6.864214647928876 -9.190546698724209 2.792229079384798 0 0 0
358 1 -4.817519159919119 -10.542254007776085 3.3230349008706863 0 0 0
400 1 -6.257011194789902 -10.314017692028653 5.306907528749244 0 0 0
362 1 -3.5982398078519164 -9.144615248166009 5.150636706015261 0 0 0
278 1 -4.327260269661613 -1.696282726869569 13.052135501458972 0 0 0
384 1 -2.205495595816629 -9.468433599764216 3.1550538975265088 0 0 0
257 1 -12.557905004988905 -6.797994175225449 3.475685894916877 0 0 0
411 1 -10.478869866341572 -7.95121038503643 4.089101435626203 0 0 0
404 1 -7.668394189394438 -6.910332839249905 3.8833895783002834 0 0 0
254 1 -9.719313222552035 -5.711864530893845 3.382276605845176 0 0 0
393 1 -5.583946357243981 -8.080105240169782 4.556346983371709 0 0 0
395 1 -5.034112586881037 -5.817545506885246 3.761736357067706 0 0 0
383 1 -1.0474093688604356 -8.210089476947944 5.00700748054736 0 0 0
1311 1 -0.33778365211494155 -6.015473487632724 4.0619744092968215 0 0 0
385 1 -2.882344611313391 -7.056305730767036 4.165297972422779 0 0 0
271 1 -11.259665261863521 -5.489869459116704 5.250853295103349 0 0 0
1320 1 -13.381198152597426 -4.353978336637091 4.696672863313763 1 0 0
266 1 -10.699909972243013 -3.170164990297687 4.558636709536559 0 0 0
396 1 -7.17662765596301 -4.70430297562628 3.137158092219474 0 0 0
448 1 -8.532257276921992 -4.33327333720514 5.137232647272869 0 0 0
431 1 -4.551256162344465 -3.4559714160453954 2.9101272729364194 0 0 0
326 1 -5.919849149395596 -3.365474361967605 4.928967824402429 0 0 0
428 1 -3.904324499583643 -4.549381495223123 5.408682439212688 0 0 0
429 1 -2.440712008955016 -4.705029020611024 3.5198472399343377 0 0 0
421 1 -1.2855940097678182 -3.5559764092583173 5.295835859912879 0 0 0
1349 1 -12.80071784409741 -2.213092061118539 3.7780621341554284 1 0 0
237 1 -11.466039525217155 -0.7257440824361083 5.687479399528508 0 0 0
263 1 -10.03855842923756 -0.9170411032379793 3.753807812264151 0 0 0
441 1 -7.909979075585389 -2.1367304093398296 4.392180886751715 0 0 0
333 1 -5.382363760148785 -1.1770317380599344 4.1479855171292765 0 0 0
1673 1 -0.11497992284448344 -13.936902371264345 7.159428281470953 0 1 0
334 1 -3.3046362402719662 -2.3976264201870308 4.751661612003131 0 0 0
340 1 -0.7199476891851972 -1.2439329809463775 4.520488347506907 0 0 0
847 1 -11.511896829561044 -12.407070832230724 5.685506170418867 0 1 0
372 1 -13.15875909231402 -12.363417171964699 7.568606215211654 0 0 0
410 1 -10.97809411736948 -13.345511354190327 8.35410586426939 0 0 0
846 1 -9.495917599093161 -13.647579608809254 6.287547159002832 0 1 0
360 1 -8.132714407891685 -12.434937962405584 8.083990503488044 0 0 0
829 1 -6.8140034855142835 -12.591118710634149 6.1111297853315865 0 1 0
367 1 -4.060913501769408 -11.572391760706907 5.960545262633369 0 0 0
827 1 -4.6850081080062544 -13.74523127286311 6.762200123504341 0 1 0
446 1 -5.573939920462886 -11.285064730896085 7.969033367870468 0 0 0
864 1 -2.0925730471154242 -12.858649670217615 6.584350273166249 0 1 0
1689 1 -0.8187424753506765 -11.585494872580067 8.356392357719669 0 1 0
449 1 -12.392700183104717 -9.932273267804897 6.715051969025007 0 0 0
403 1 -10.297966883671652 -11.21189260517452 7.47046162728102 0 0 0
412 1 -9.880615192186356 -9.037347713853595 6.75242091684011 0 0 0
874 1 -7.594163875898607 -10.195474372952422 7.204701195250356 0 1 0
392 1 -4.965483026539541 -9.073531420840105 7.084260413445579 0 0 0
391 1 -1.5220167696986806 -10.426275224333297 5.72872240125619 0 0 0
381 1 -0.33476437576545237 -9.317451738490591 7.623611732565665 0 0 0
1284 1 -2.819512337894894 -10.150897519112767 7.814666998378753 0 0 0
405 1 -11.779606707856939 -7.6937715159326165 6.080403358829683 0 0 0
1325 1 -13.147790743378714 -7.424126023108844 8.116724392035207 1 0 0
461 1 -10.609824078909888 -6.478233338496835 7.905730982608597 0 0 0
320 1 -9.111934621388054 -6.668746962544525 5.873178010419403 0 0 0
463 1 -7.117827624610387 -7.939676592227148 6.483620728753182 0 0 0
454 1 -8.52405515326575 -7.660604319834342 8.360396979205378 0 0 0
438 1 -4.420974152076253 -6.7291804368161054 6.312103138435871 0 0 0
437 1 -5.934717125830485 -6.731932223670077 8.218429952683548 0 0 0
436 1 -2.3571361462828744 -7.909717843896073 6.867742994288383 0 0 0
427 1 -1.7880323175189972 -5.739665452766538 6.049076105367368 0 0 0
464 1 -12.725231800653077 -5.208715147736495 7.2347955177476155 0 0 0
267 1 -12.149614819037646 -3.0274074466641245 6.382734426095039 0 0 0
239 1 -13.637847279596656 -2.994122391998369 8.370192188230563 0 0 0
456 1 -7.915116409774227 -5.373523133674315 7.7555501849319395 0 0 0
439 1 -10.064924213852265 -4.2557610411054245 7.018549537342627 0 0 0
318 1 -7.472471815678883 -3.140655122723116 6.8535138772980115 0 0 0
440 1 -6.565378655743694 -5.684015620922514 5.738741966389478 0 0 0
328 1 -5.321926187961923 -4.376279810999263 7.505469907894797 0 0 0
336 1 -3.2217045460124503 -5.624143979525252 8.046919570849196 0 0 0
337 1 -2.6782150607202855 -3.3324789691607926 7.325207619115757 0 0 0
1232 1 -0.5865551975610597 -4.543709350121743 7.808920504492084 0 0 0
236 1 -12.847477730682165 -0.6310076765372443 7.797480428877554 0 0 0
317 1 -10.723189054185283 -1.738677231756986 8.241096718798422 0 0 0
235 1 -9.490756138638307 -1.9369746587321508 6.249398088314775 0 0 0
289 1 -8.1584710250094 -0.6711495635848248 8.117560993470581 0 0 0
325 1 -6.787547649869819 -0.8447455431963622 6.054256811436277 0 0 0
341 1 -4.727131224988264 -2.143538491038006 6.636119331285533 0 0 0
302 1 -2.018613952814464 -1.097438001141585 6.418502371952629 0 0 0
281 1 -1.7236892200118916 -0.646982141547678 12.82856190106026 0 0 0
418 1 -12.3478727276615 -13.132071337046545 10.362182117352853 0 0 0
409 1 -9.790458385577377 -12.127298263478474 10.04999388408734 0 0 0
399 1 -7.6726510752296875 -13.436934681720654 10.739358165359521 0 0 0
863 1 -3.3611737113674405 -12.639680852368707 8.575957694771697 0 1 0
406 1 -6.1080251824871326 -13.661933427183286 8.715108286627787 0 0 0
398 1 -4.901812041998173 -12.35727452644638 10.50670915801434 0 0 0
388 1 -0.2165990495687975 -12.470458110910307 10.902059710876662 0 0 0
887 1 -1.4524257820397928 -13.842154328226965 9.232996759160352 0 1 0
443 1 -2.93399497811742 -13.685780621724868 11.064155927733259 0 0 0
434 1 -2.2354466634563224 -11.183164890331142 10.318106308511085 0 0 0
451 1 -11.292743207236292 -8.711441151421035 8.740871413549373 0 0 0
415 1 -11.83042994039669 -11.063130779356452 9.313079691948515 0 0 0
459 1 -10.613912681233623 -9.667501334270604 11.147878143078275 0 0 0
460 1 -12.685871868890027 -8.553088537724218 10.625093260785475 0 0 0
401 1 -9.099622058093875 -9.956249835504448 9.10645865433237 0 0 0
316 1 -7.873984589531707 -8.72533266824584 11.000719195859665 0 0 0
407 1 -7.074514339177667 -11.215237590885412 9.96789785431198 0 0 0
390 1 -4.407055846183573 -10.097341094784824 9.616607637638781 0 0 0
447 1 -6.436391707118277 -8.855856474956411 9.033485062666122 0 0 0
424 1 -1.6982231586760808 -9.121105167292754 9.573867074425463 0 0 0
462 1 -12.030126993489707 -6.224796452123613 9.934531500175288 0 0 0
314 1 -9.970560609677388 -7.408340686943974 10.296681098760901 0 0 0
315 1 -7.342006838387632 -6.466128929440692 10.345701890480806 0 0 0
322 1 -5.197991923151351 -7.685667509380415 10.875007179420765 0 0 0
426 1 -3.6883978409217733 -7.792428354427204 8.825780934479193 0 0 0
1226 1 -1.1448666128725673 -6.816582065360065 8.804401801324738 0 0 0
1029 1 -2.7170784478765757 -6.578158262710485 10.606190530544081 0 0 -1
238 1 -11.566625187226082 -4.0139560675953465 9.036318809683985 0 0 0
311 1 -12.885482271985047 -3.9550340713311556 11.041192910742781 0 0 0
312 1 -9.436560285206244 -5.183079575265287 9.711390373780455 0 0 0
327 1 -8.89673223330421 -2.8692316165447185 8.794952937602199 0 0 0
291 1 -4.68795912124747 -5.42923437471755 9.96790307098304 0 0 0
321 1 -6.71559499413925 -4.210124129360569 9.641549366717486 0 0 0
329 1 -4.155286164193397 -3.0653899581698667 9.15581540840993 0 0 0
297 1 -5.544264114422132 -2.8901508365336426 11.196105576609595 0 0 0
330 1 -2.011562785465321 -4.2573806876640745 9.862179478396369 0 0 0
242 1 -12.267705304690331 -1.5643282785016144 10.267107439205597 0 0 0
319 1 -10.212867569396977 -2.861419426021861 10.805785118001639 0 0 0
288 1 -9.560774516588577 -0.5167509435759268 10.129994018965741 0 0 0
290 1 -7.469933976070361 -1.5394495926124332 10.647873082333733 0 0 0
303 1 -3.529191298141516 -0.8372591030950502 8.365007660461226 0 0 0
335 1 -6.199813302555922 -1.9010741832772275 8.580871027594556 0 0 0
277 1 -4.991247839977564 -0.5720919516833138 10.236521824782619 0 0 0
304 1 -3.0258276613571713 -1.9841694864240456 11.065408404075773 0 0 0
296 1 -1.4511263486715364 -2.0542590849678675 9.140672487258266 0 0 0
1182 1 -0.15775219772407922 -0.8144084095025601 10.935848459820322 0 0 0
453 1 -11.204755193077755 -12.0079355612468 12.098037530518875 0 0 0
785 1 -6.631373521447264 -13.94741380745209 2.277113213450308 0 1 0
168 1 -12.611478031583435 -11.71982763344955 14.008270173408606 0 0 -1