LAMMPS data file via write_data, version 2 Aug 2023, timestep = 0, units = metal

1859 atoms
3 atom types

-14.195582245385769 14.195582245385769 xlo xhi
-13.398629363138067 13.398629363138067 ylo yhi
-14.361811572138066 14.361811572138066 zlo zhi

Masses

1 55.847
2 1.008
3 1.008

Atoms # atomic

1745 1 -12.118502893645488 -11.24687457468196 -11.274153584918073 0 0 0
1746 1 -11.77282240629648 -10.189959510667382 -13.458165259260813 0 0 0
1747 1 -12.137073164456956 -8.892220262938565 -10.787610975616092 0 0 0
1749 1 -10.021637992690339 -9.419476944883641 -12.040784773967363 0 0 0
974 1 -9.940080590719715 -11.788271572544778 -12.427291882668968 0 1 0
5 1 -11.781385558208225 -12.680237576554013 -13.81399879568671 0 1 1
1726 1 -10.294151296240528 -10.81982825169684 -9.827844908128593 0 0 0
1634 1 -10.326932488275876 -8.314061873747729 -9.353559591482188 0 0 0
1725 1 -10.06230551108284 -13.19356620272398 -10.260791267825047 0 0 0
555 1 -13.897534400521202 -12.066115192111226 -12.749760559846527 1 0 1
1724 1 -12.339850585195382 -12.576899206161361 -9.141277540895778 0 0 0
1655 1 -9.798151813068774 -8.197125899612617 -14.162157888990674 0 0 0
1652 1 -13.995775354282125 -9.67513858577632 -12.280661234572948 0 0 0
1653 1 -13.795643423919236 -8.431417275459598 14.341884380176584 0 0 -1
1727 1 -8.044255014926069 -11.236094144705394 -10.936444859878934 0 0 0
1818 1 -7.789836673474412 -12.348591797409416 -13.490605697952116 0 0 0
1819 1 -5.939611368759282 -11.717777877950656 -11.989523748326132 0 0 0
1751 1 -6.101744761796997 -9.19340855390029 -11.639000242069041 0 0 0
1750 1 -7.9804958881633965 -9.936933386129386 -13.05246799122407 0 0 0
1731 1 -4.103200317916466 -10.948845196689234 -10.54801864522462 0 0 0
1807 1 -3.864171678616735 -9.817458266237676 -12.688205012918273 0 0 0
1733 1 -4.210659204787181 -8.567127550286033 -10.202771907378041 0 0 0
1636 1 -8.176529183772764 -8.708674327446936 -10.44830515057438 0 0 0
1804 1 -6.349128939316992 -12.96934712841849 -9.818789906487599 0 0 0
1729 1 -6.245070148431419 -10.377736994716805 -9.379326764668726 0 0 0
1048 1 -3.7779960253244074 -12.184542513202995 -13.074131157685052 0 1 0
1730 1 -6.401848134169891 -7.946497736607922 -8.979701706733415 0 0 0
1820 1 -5.715134409197658 -10.300882842496929 -14.15908505274901 0 0 0
330 1 -5.622282903875135 -7.8996574870625045 -13.814726249640639 0 0 1
1039 1 -4.078349025569096 13.273882242740168 -11.033880903961975 0 0 0
1708 1 -8.37489118585373 -12.367094944541297 -8.841043012572237 0 0 0
1809 1 -0.19835196498373797 -8.28471465503641 -9.738510461222013 0 0 0
1821 1 0.18565134565337615 -9.55062475714981 -12.285233976290677 0 0 0
1850 1 -2.047645918760585 -9.027774515174634 -11.200759463019224 0 0 0
548 1 -0.22164743878042614 -10.756466095411925 -10.074716495489128 0 0 1
1808 1 -1.8591179280360688 -11.470759542828368 -11.76247473422361 0 0 0
1852 1 0.28400775638551856 -11.891072982839974 -12.645104471846416 0 0 0
1735 1 1.9071699370308721 -8.839332796923 -10.967344383780492 0 0 0
1146 1 -2.3404989643412826 -12.733906012532357 -9.665354800371308 0 1 0
1028 1 1.6941010167007402 -12.395304733520064 -9.05092885920762 0 1 0
538 1 -1.7571037402758147 -10.157622852059607 -13.824654776492805 0 0 1
1810 1 1.9889193023464813 -11.233668902665642 -11.18149561584527 0 0 0
1853 1 2.2865750765041604 -9.978978206108444 -13.480267020975278 0 0 0
1792 1 -2.4094999255647895 -10.3603261825647 -8.93797642112309 0 0 0
1049 1 -0.05720748272035436 -13.23140927954722 -10.636682159829848 0 1 0
39 1 2.258745474279152 -12.500035627338649 -13.787856917755304 0 1 1
11 1 -1.463776003841275 -12.682747742172628 -14.18697875268416 0 1 1
1794 1 1.6523959262996186 -10.065653707653961 -8.72345261340308 0 0 0
1842 1 4.138641969127576 -11.723875993590196 -12.346743754441214 0 0 0
1812 1 4.122128975594343 -9.251524069982928 -12.046863815714087 0 0 0
1843 1 3.8749391382369964 -10.465978066502114 -9.838856043287135 0 0 0
1043 1 6.305983505679052 -9.848150129508753 -13.19918926421473 0 1 0
1845 1 5.979745259674395 -11.040013040001956 -10.910055271459273 0 0 0
1813 1 6.003918646121722 -8.623934573981305 -10.562350062575465 0 0 0
1150 1 6.4400890429018816 -12.260047224551773 -13.542291384723743 0 1 0
1136 1 3.8645657939886107 -12.966706604375617 -10.267810886093528 0 1 0
1811 1 3.7145699581994336 -7.959677978218802 -9.350626122650839 0 0 0
1837 1 7.83278880373037 -12.76718910905079 -9.915091920737806 0 0 0
1851 1 4.557504036179097 -8.105835217659816 -14.048933682604652 0 0 0
1720 1 7.796876089371217 -7.9738011616276525 -8.994447135518975 0 0 0
1798 1 8.001397834858128 -10.312001223344392 -9.425411732413561 0 0 0
1814 1 8.178266578224545 -9.179293335359631 -11.61738605429746 0 0 0
1844 1 8.120549982936144 -11.508174879898927 -11.95153852105259 0 0 0
1839 1 10.175900191743139 -10.946220804240163 -10.604625220054489 0 0 0
1856 1 12.226226806573433 -11.50817125068598 -11.811943992432752 0 0 0
1857 1 12.644336252129772 -10.223896558840623 -13.844833064370537 0 0 0
1824 1 12.174586422450993 -8.970852649707652 -11.244867926021854 0 0 0
1121 1 11.945326374872533 -12.616642003349872 -9.474065984719214 0 1 0
1815 1 10.535363524674036 -12.068678163825604 -13.197162796287492 0 0 0
1800 1 10.047336221996485 -8.521154723722718 -10.094701200000928 0 0 0
354 1 10.382750233919147 -9.702737455895793 -12.704200832675818 0 0 1
1847 1 11.935115728967432 -10.247283376927639 -9.066852493802065 0 0 0
552 1 8.4986479495531 -7.989668362008768 -13.770222651715065 0 0 1
351 1 8.491761026928838 -10.390365114247698 -14.279871923394216 0 0 1
1854 1 12.644872078713316 -12.662485889975788 -14.341475311583219 0 0 0
1142 1 14.11147451722011 -13.167094790138874 -10.609504901806256 0 1 0
1855 1 14.09566970464553 -10.809736859633501 -10.12756300229223 0 0 0
1632 1 14.00028543201578 -8.389451476737795 -9.64656780740646 -1 0 0
1654 1 -11.984275715240978 -7.6357502026484285 -13.060856558053146 0 0 0
1518 1 -12.230455198128007 -6.424581962465399 -10.368808828580374 0 0 0
1539 1 -11.945227214499539 -5.223614047536472 -12.544677302707179 0 0 0
1541 1 -10.104463717012166 -4.449472346608282 -11.046097480756375 0 0 0
1559 1 -9.817027352323372 -3.274176963125683 -13.181797405469457 0 0 0
1414 1 -12.257782620023303 -3.924822408106696 -10.127137973372166 0 0 0
1656 1 -10.163527921172308 -6.905915648337253 -11.675188304136496 0 0 0
1540 1 -9.78108117292568 -5.825662743526352 -13.728155415196468 0 0 0
1743 1 -12.032367058137847 -2.780898961663196 -12.184612330903237 1 0 0
1764 1 -13.93896829014742 -3.3661387537855827 -13.61063647071276 1 0 0
1538 1 -13.774736060357078 -5.792261588688647 -14.02978359351085 0 0 0
1520 1 -10.545280678067618 -5.690158740225638 -8.95832910827209 0 0 0
1435 1 -14.003637867410434 -7.165256245595051 -11.843153752778079 0 0 0
1817 1 -14.104297155687455 -4.556803930400472 -11.461880918055627 1 0 0
1418 1 -8.13325225714992 -3.899380309445613 -9.638699254953108 0 0 0
1657 1 -7.965257310991352 -7.55500600512955 -12.596388330294094 0 0 0
1753 1 -4.007012146221344 -7.3654062400172675 -12.205853266878915 0 0 0
1522 1 -8.304603125336957 -6.277223201538535 -10.065903160190153 0 0 0
1542 1 -7.93602853214372 -4.951200533715449 -12.219109190398337 0 0 0
1543 1 -6.036566041948021 -4.241674492214361 -10.772634946935135 0 0 0
1544 1 -5.876079535094481 -3.149591601855173 -12.971781487123351 0 0 0
1658 1 -6.20973592907505 -6.738673825051063 -11.120125934549261 0 0 0
1638 1 -4.2677481874494845 -6.186850176515938 -9.66663868376519 0 0 0
1659 1 -5.841974612650608 -5.441501727854287 -13.31689816157538 0 0 0
1660 1 -3.946018819962596 -4.808375824875936 -11.96078817572544 0 0 0
1524 1 -4.3477276079497855 -3.751250689614528 -9.319435295811981 0 0 0
310 1 -3.5883817944299743 -3.5724725907646935 -14.018334956055492 0 0 1
1439 1 -8.052318676355181 -2.502216526303588 -11.65876040151496 0 0 0
1545 1 -3.8728339855102725 -2.439886035209616 -11.475484546284541 0 0 0
1560 1 -7.648316534809672 -3.8725789444312593 14.349626616618876 0 0 -1
1754 1 -1.8443239437184307 -7.830471541581162 -13.36267537996197 0 0 0
1822 1 2.1875284668285992 -7.579944391492773 -12.99698950212672 0 0 0
1755 1 0.047464829625532445 -7.049891293972011 -11.849561139951478 0 0 0
1734 1 -0.19130073054252428 -5.785417229353852 -9.229665622054686 0 0 0
1546 1 -1.7360299017832421 -2.982753146268056 -12.469366364574205 0 0 0
1526 1 -2.1921923206633043 -4.1711639918550425 -10.244991981375385 0 0 0
1640 1 -2.0299733929279746 -6.647804985507849 -10.717983493402492 0 0 0
1662 1 -1.8836984896159628 -5.454575606929563 -12.891245203969454 0 0 0
1663 1 0.4148359905734029 -3.406715751205242 -13.516561045148276 0 0 0
1547 1 -0.06497316069198789 -4.599500229344899 -11.418239035348348 0 0 0
1642 1 1.908372659683831 -6.389363208764979 -10.52386269423521 0 0 0
1528 1 1.8993215607738243 -3.976039559233529 -9.99298479327685 0 0 0
343 1 0.4454513040375847 -6.0246635034677105 -13.980925195824017 0 0 1
1664 1 2.1602746837679483 -2.715651831783255 -12.065167142861586 0 0 0
1757 1 2.263081781577391 -5.1427781760987195 -12.697796751373893 0 0 0
1641 1 -0.3159029923052543 -3.4300778238665384 -8.854752390546285 0 0 0
1443 1 -0.08523320037058824 -2.1376487900470273 -10.982345844862412 0 0 0
1823 1 6.444447482511389 -7.4267626316689705 -12.734154879242979 0 0 0
1737 1 4.094257042730977 -6.956017760143418 -11.498431861873229 0 0 0
1644 1 4.035909522246872 -4.480587475579187 -11.094391635176269 0 0 0
1665 1 4.322565559426689 -3.175386166132405 -13.275879154757062 0 0 0
1759 1 6.224117770235601 -4.888300102899487 -12.176031164665304 0 0 0
1738 1 5.967830781022915 -6.213349476672065 -10.115262584669402 0 0 0
1758 1 4.498166987949038 -5.595992025548523 -13.630953342884519 0 0 0
1645 1 5.854594260983095 -3.8500877293600073 -9.66683987219911 0 0 0
1666 1 6.168574447970869 -2.5758981727940373 -11.720281713833415 0 0 0
1736 1 3.69574404306249 -5.714287021016552 -8.968683911437843 0 0 0
1646 1 8.214572560639038 -4.427598505163386 -10.788525236845395 0 0 0
1739 1 8.163095929365614 -6.7767216970701245 -11.127121784624409 0 0 0
1667 1 6.4175138441157245 -3.6953924204852253 14.358185481829048 0 0 -1
550 1 12.567659138431402 -7.647385917297972 -13.351282676657002 0 0 1
1761 1 8.348303837640287 -3.088404942199931 -13.006503478574583 0 0 0
1741 1 8.438742753723844 -5.4047121690233615 -13.309234217287372 0 0 0
1763 1 10.301831836628011 -4.909204471418409 -11.869850661607776 0 0 0
1740 1 9.979350327031074 -6.116772315298008 -9.722250871224979 0 0 0
1631 1 12.21509518107531 -6.597615857035842 -10.789157196977861 -1 0 0
1848 1 10.279362479554795 -7.255022303933295 -12.270497408896631 0 0 0
1816 1 12.265091879444363 -4.1104264231478265 -10.44207645652365 0 0 0
1825 1 12.448011243144691 -5.317134471717507 -12.90638942502256 0 0 0
1456 1 12.419144915818084 -2.844942967902128 -12.584014998509703 -1 0 0
1647 1 10.007411377677396 -3.658385631823009 -9.244518881780246 0 0 0
1671 1 10.480858726177935 -3.5449787715343657 -13.931509158146298 0 0 0
1648 1 10.160633675538513 -2.4897042110439873 -11.447476551351382 0 0 0
1323 1 -14.17148550012065 -2.170422314419433 -11.053166134538248 0 0 0
1802 1 13.926389997662682 -6.030433235277887 -9.240832653245084 0 0 0
1322 1 13.987045076864117 -3.55011796885141 -8.89313967335514 -1 0 0
1438 1 -10.178260924459758 -2.1571995612717885 -10.460136666156682 0 0 0
1345 1 -12.0437822341386 -0.27101094492751443 -11.689069711379862 0 0 0
1215 1 -10.307208014035647 0.4672494648687415 -10.194554159994741 0 0 0
1347 1 -9.88530828331099 1.6397279007342398 -12.285405853884338 0 0 0
1346 1 -9.86118555670642 -0.8271979954981994 -12.800928460790203 0 0 0
1102 1 -12.158172824073661 2.1594129267541824 -11.373500227602875 0 0 0
1344 1 -11.75604137399081 0.7590738554930514 -13.868657326697006 0 0 0
1216 1 -10.375041818834818 2.8169081794998228 -9.698008254795116 0 0 0
1436 1 -12.40995013495336 -1.4650252926103011 -9.630759403359946 0 0 0
1343 1 -13.983607728209716 -0.9933605539833348 -13.114111933952955 0 0 0
1651 1 -12.495445699321163 1.0271540820564589 -9.13519223168155 1 0 0
1233 1 -14.053768561299433 1.5086006523922446 -12.74999845576366 0 0 0
1437 1 -11.723016301454381 -1.690126161870845 -14.188747568635595 0 0 0
1304 1 -8.432318979738536 -1.4141637806217453 -9.11734971533793 0 0 0
1217 1 -7.8976357923708855 2.34523482044483 -10.972027312315817 0 0 0
1440 1 -6.121291253814594 -1.8617979480719686 -10.384896323994019 0 0 0
1325 1 -8.178899766410545 -0.06664954071440121 -11.290084833417174 0 0 0
1441 1 -5.786752079703112 -0.7307460394313487 -12.503791487260653 0 0 0
1442 1 -4.043660672956806 0.12542444095757865 -11.073707800408021 0 0 0
1327 1 -5.89728363037665 1.5664842444917735 -12.205590851223187 0 0 0
1348 1 -7.777072661611561 1.0387353580461198 -13.508331171722693 0 0 0
1328 1 -6.180193507992371 0.5044299964648467 -9.89464887794307 0 0 0
1329 1 -4.070921480479933 2.4043144551389517 -10.640510869240748 0 0 0
1458 1 -7.671951542913291 -1.3695147389801132 -13.962498959290116 0 0 0
1459 1 -3.600300090418136 1.2699962090112518 -13.259207776025104 0 0 0
155 1 -3.687654367685507 -1.1658617945561325 -13.638132910402028 0 0 1
1218 1 -6.263048067276573 2.937521695600555 -9.42877587572928 0 0 0
1350 1 -5.416012914701071 2.895725462346018 -14.16842453775676 0 0 0
1420 1 -4.263056349549112 -1.1446267355035555 -8.940222197098302 0 0 0
1326 1 -8.326941073148607 1.0361970178071171 -8.734182100793472 0 0 0
1422 1 -2.1133607670939725 -1.7430760075549419 -10.030968355343298 0 0 0
1548 1 0.27709981998237865 -0.9439229595660557 -13.212607247079713 0 0 0
1561 1 -1.8778003564284091 -0.491320775188516 -12.106027682682722 0 0 0
1444 1 -0.006488194320253271 0.263924754545517 -10.612458064290617 0 0 0
1445 1 -1.8540273961276554 1.877364753483203 -11.694781834017617 0 0 0
1563 1 0.3141790915164897 1.5328252367997948 -12.73959063881785 0 0 0
1330 1 -0.18020134212483718 2.646642240908964 -10.159639007458372 0 0 0
1308 1 -2.2033212881920328 0.6767127497609309 -9.507516806107656 0 0 0
1527 1 1.810196493925183 -1.4671116513114342 -9.574133196768251 0 0 0
1446 1 2.143357939072949 2.1362408794111847 -11.383930666688133 0 0 0
1549 1 2.1245811231883422 -0.236442639450825 -11.737860181013748 0 0 0
1424 1 1.852415521353496 0.8845120753212203 -9.244237629543656 0 0 0
1199 1 -2.320562861625241 3.0821476142212596 -9.12300733824567 0 0 0
1352 1 -1.479885130476072 3.253729871238143 -13.843600414146811 0 0 0
1564 1 2.3543296751983043 0.95619412242878 -13.946186695289905 0 0 0
1562 1 -1.5056191031522523 0.7468044712513393 -14.252922310595935 0 0 0
1461 1 2.29409637253681 3.3618984885636607 -13.37420951235317 0 0 0
341 1 2.466990603916205 -1.5128430981254457 -14.326453209123148 0 0 1
1310 1 1.7494407414440492 3.236987348264744 -8.77462197451154 0 0 0
1530 1 3.9171880417578606 -1.872115642723303 -10.683755878771146 0 0 0
1426 1 4.020558671214253 0.4788326583922071 -10.239024060736476 0 0 0
1447 1 4.212256023797359 1.5852056351408699 -12.41591646695791 0 0 0
1312 1 3.90592849314152 2.814192442373983 -9.813678556600383 0 0 0
1550 1 4.28613630803796 -0.8407012131149791 -12.850252689877728 0 0 0
1551 1 6.24112232456417 -0.25291364433267205 -11.348820321916163 0 0 0
1552 1 6.440024962482575 1.1545632920061433 -13.505348828818068 0 0 0
1448 1 6.146831870638778 2.2429964729801117 -10.794976626961663 0 0 0
186 1 6.441343107793003 -1.2938639108937533 -13.905740663873853 0 0 1
1531 1 5.869557541518983 -1.31669197164398 -9.18663989902529 0 0 0
1428 1 8.028699071017275 0.5317644406075139 -9.861580871052784 0 0 0
1430 1 7.996559497962668 3.103720039720791 -9.511006709155899 0 0 0
1532 1 8.088855220172583 -1.998399732234434 -10.498066073109584 0 0 0
1427 1 5.9147665428443155 1.036288549394719 -8.757513130298122 0 0 0
1553 1 8.22412218422808 1.7373935172047457 -11.973054643604305 0 0 0
1668 1 8.172970574203422 -0.7038810680000616 -12.55229285171143 0 0 0
1742 1 12.141894820660788 -1.7495663161925776 -10.015643005396694 0 0 0
1650 1 12.264983305515976 -0.34567270907712455 -12.048071465927542 0 0 0
1534 1 10.106682617481528 0.00446185123490217 -11.03055076820949 0 0 0
1554 1 10.363096630004993 1.1813042688629114 -13.09197088724341 0 0 0
1555 1 12.220648245691475 1.9857808968874622 -11.716332842323874 0 0 0
1566 1 10.595911649221861 -1.2415669626687862 -13.577149101545334 0 0 0
1412 1 10.118965796378767 2.4295727733999737 -10.53425953230691 0 0 0
1649 1 11.91024997531034 0.7293856264117249 -9.395816769435879 0 0 0
1557 1 12.612543587897338 3.1886219587531066 -13.856365787322058 0 0 0
1432 1 11.823472188266404 3.1473585052754345 -9.011002475160534 0 0 0
1565 1 8.438373506841756 3.0937963254421206 -14.069164077739455 0 0 0
1670 1 12.588486296768316 0.6689299032077525 -14.344824899551154 0 0 0
1533 1 9.950664294870862 -1.280443074101811 -8.931685589391474 0 0 0
1672 1 14.111198764604666 0.224052525430114 -10.601509413974151 0 0 0
1536 1 13.968239925313227 2.6828198781583303 -10.237632884461418 0 0 0
1234 1 -11.844324060583485 3.1892836468246983 -13.45103123328622 0 0 0
1104 1 -12.076919215856911 4.503610158811249 -10.90963376739357 0 0 0
1124 1 -11.911605576873452 5.7059730107631665 -12.97091348432072 0 0 0
1018 1 -10.018032534942343 6.409160762888472 -11.564580261360666 0 0 0
1236 1 -9.886340517539512 4.00938375144645 -11.926065938133133 0 0 0
967 1 -11.96514718552025 8.05284855789586 -12.568190143515515 0 0 0
1017 1 -12.354879156823698 7.047649221171756 -10.484538755613766 0 0 0
47 1 -9.702399073045683 7.6504735009776965 -13.662692474429917 0 0 1
1105 1 -10.402317428900666 5.1772038366901185 -9.333904878606965 0 0 0
1125 1 -9.63383280171939 5.281299830502846 -14.078451729332594 0 0 0
36 1 -13.751717508945076 7.544931379904181 -13.994139501376793 0 0 1
1019 1 -10.431790985481879 7.4685983223864305 -8.872073709039428 0 0 0
1455 1 -13.83044828096187 3.8865258009031045 -12.38939886416511 1 0 0
1033 1 -10.055274174047556 8.804997101884627 -11.126811067204752 0 0 0
1103 1 -14.130398963949352 6.268441965370581 -11.945536907460639 0 0 0
1342 1 14.188872164348691 8.760293974252868 -11.566137299276608 0 0 0
1237 1 -7.645801468193921 3.5329211298318377 -13.052505503430295 0 0 0
1460 1 -3.8490678445603717 3.6784512731246615 -12.786158899121144 0 0 0
1106 1 -8.084785769292598 4.68627222589496 -10.405808260208763 0 0 0
1020 1 -8.178020592477614 7.1246154454736725 -10.009911759687043 0 0 0
1349 1 -5.773551119281684 4.177657484183332 -11.557668002301117 0 0 0
1126 1 -7.798099900416574 5.79585408574906 -12.601034545707755 0 0 0
1238 1 -6.043705376655115 6.58208771635795 -11.210040373240975 0 0 0
1129 1 -5.6152865086644255 7.891793841439707 -13.397011513902726 0 0 0
1109 1 -4.153562806335813 7.224853364361287 -9.740559656282011 0 0 0
1239 1 -5.78397750533871 5.279347420902418 -13.692151468144413 0 0 0
1351 1 -3.7987205858539212 5.992350748669683 -12.34588507598402 0 0 0
1219 1 -4.099367359584141 4.841059712715136 -10.140946369893623 0 0 0
1128 1 -7.867627710042116 8.144519912830798 -12.259642006016172 0 0 0
1240 1 -3.970477674935335 8.417577629706592 -11.801486133517615 0 0 0
1005 1 -6.2223850996542405 5.318031658331037 -8.956631275052192 0 0 0
1331 1 0.22154362814405992 3.834188750889414 -12.3760142770052 0 0 0
57 1 -1.4984928760540335 5.676259718367682 -13.354141462583332 0 0 1
1221 1 -1.9361339002544717 4.41508924118644 -11.201272639071531 0 0 0
1241 1 -1.7625121505664918 8.001591250479333 -12.939504100008964 0 0 0
1332 1 2.0763493900168903 4.555738396971432 -10.803399665327248 0 0 0
1353 1 0.2498069129750089 6.2340417479849535 -11.866430823247633 0 0 0
1222 1 -0.2090597588921117 7.5113805942445175 -9.233210320898394 0 0 0
1220 1 -0.05478751936956172 5.012130347100349 -9.821271646674226 0 0 0
1223 1 1.9842040512929238 6.908468514634851 -10.425790998386619 0 0 0
1110 1 -2.0307270839775313 6.652617662331426 -10.696969771472721 0 0 0
1243 1 0.4681147441107729 7.485271853772499 -13.98551056869385 0 0 0
1245 1 2.199310629926689 8.1793276829615 -12.424286000548253 0 0 0
1242 1 0.0665803147170756 8.61211392221269 -11.43684372584618 0 0 0
1355 1 2.328837184032757 5.795710866580645 -13.06663932534556 0 0 0
1449 1 6.229681142506724 3.5330088700876416 -13.081022885033539 0 0 0
1333 1 4.136404667886335 4.068515780454824 -11.840318844218203 0 0 0
1450 1 6.007142712506479 7.223662278446522 -9.94761912301861 0 0 0
1334 1 3.945077371430294 5.370630523806081 -9.371430368169559 0 0 0
1335 1 4.101500987662902 6.478136155073329 -11.556605155227986 0 0 0
1357 1 6.286057409501598 8.322717843649922 -12.22459931110729 0 0 0
1463 1 6.193657483673519 5.946703181027868 -12.613329308291817 0 0 0
1337 1 5.99740661974209 4.676536277961375 -10.449343662216439 0 0 0
1356 1 4.475950391434942 7.59171804411184 -13.691534125851112 0 0 0
179 1 4.478336594226736 5.236421163253425 -14.062591355797379 0 0 1
1316 1 7.887501538599942 5.455361981874731 -8.964320325588416 0 0 0
1225 1 3.758847175783586 7.6529147935102095 -8.935535600783114 0 0 0
1227 1 4.201655122413413 8.919208487216736 -11.044802177942586 0 0 0
1451 1 8.120047106479646 4.120040572095498 -11.659696651014631 0 0 0
1359 1 8.115651257227551 6.593191786502647 -11.275211746095412 0 0 0
1464 1 10.384417425482503 3.7160526754270577 -12.688424572792545 0 0 0
1358 1 8.416760183805778 7.869660087226933 -13.369825043962013 0 0 0
76 1 8.418362400152688 5.4946009821768875 -13.700183214950556 0 0 1
1452 1 10.102477140704291 5.041933232854181 -10.154500207015161 0 0 0
1339 1 10.306461454970524 6.10430541220823 -12.355244017680484 0 0 0
1453 1 12.17519994412768 4.408798435236282 -11.153093610268645 0 0 0
1465 1 12.545427403585759 5.629655329262562 -13.450332745239669 0 0 0
1341 1 12.071676648878494 6.792326102173039 -10.71412418436122 0 0 0
1362 1 12.43890457219073 7.931004970098254 -12.964811006007372 0 0 0
1318 1 9.918580910525623 7.398968026559295 -9.629227210233697 0 0 0
1361 1 10.32350102983003 8.451804156835735 -11.933702709217624 0 0 0
1454 1 13.929185537860867 7.558592340795933 -9.374909462770031 0 0 0
1434 1 13.98244517088876 4.942099149974489 -9.876488058646526 0 0 0
931 1 -12.036079062670177 13.117477841062637 -11.693107485495085 0 0 0
1034 1 -9.878423898467915 10.021322431056674 -13.19136767734827 0 0 0
968 1 -12.347877341526706 11.880525522920564 -9.550234725300573 0 0 0
969 1 -10.102412644417889 11.165846222327588 -10.65259173598206 0 0 0
1045 1 -11.940417927471712 10.662285153595736 -12.134384919516716 0 0 0
1046 1 -9.94433546012039 12.467532615206068 -12.760731347181206 0 0 0
959 1 -12.221184113477081 9.346992482549652 -10.044787490207503 0 0 0
1044 1 -13.861344208841428 9.780093824519547 -13.687280369965846 0 0 0
973 1 -13.94946591973594 12.340673817342548 -13.143611234267283 0 0 0
3 1 -11.637709733177484 11.791448321005472 -14.158804237891868 0 0 1
930 1 -14.122944004993712 11.141083773556165 -11.099717613298624 0 0 0
1130 1 -6.217853996668895 8.943877505042895 -10.719234191810862 0 0 0
971 1 -8.109746161864912 13.098815465667911 -11.320060218165313 0 0 0
970 1 -8.331313574856189 11.957499537999844 -9.251538705760257 0 0 0
1035 1 -8.317763451563437 9.558591244430094 -9.42409099062954 0 0 0
972 1 -5.874192422121302 12.668794990873305 -12.469538900258543 0 0 0
1036 1 -8.015098030733007 10.75707296556758 -11.676126984980106 0 0 0
1037 1 -6.251165128109413 11.440240441862969 -10.317799750680111 0 0 0
1047 1 -5.8736886177514975 10.18884936209253 -12.86496643053894 0 0 0
1038 1 -3.977590910807317 10.780685037865386 -11.363094278903862 0 0 0
31 1 -3.6401260352104554 12.092458760697003 -13.532444173652713 0 0 1
4 1 -7.6243293234884115 11.95734738366055 -13.862953988414901 0 0 1
1024 1 -4.223266091591489 9.691185581228542 -9.100107992794474 0 0 0
45 1 -3.618114023240061 9.81358189811477 -14.023525593027303 0 0 1
965 1 -4.495437931231065 12.080515219151508 -8.879433029319806 0 0 0
1042 1 2.1961834587068303 13.025098337062158 -11.662769958498533 0 0 0
1132 1 -2.0861546842301504 9.067598929302541 -10.211104312604323 0 0 0
1040 1 -1.8017631588151346 12.961399963472786 -12.161895684760442 0 0 0
1806 1 -2.0565452985272383 11.49802344853478 -10.009299617392466 0 -1 0
1244 1 1.8288685079750984 9.388568232843106 -10.14199023351848 0 0 0
64 1 0.41802361983639535 9.884141335503408 -13.628497594962017 0 0 1
1147 1 -1.8273685623798848 10.322713449091076 -12.460865705252912 0 0 0
1133 1 -0.07890124924844777 11.161167554018792 -11.081111659593159 0 0 0
1134 1 1.9072125626012095 11.845220243442682 -9.482022175980411 0 0 0
1148 1 0.3126602075920939 12.335974496387944 -13.147603871338882 0 0 0
1135 1 2.119811539416329 10.642095254922506 -12.151776231522529 0 0 0
1112 1 -0.2217333986837442 9.9631937214319 -8.96312952449847 0 0 0
1138 1 6.145700076913666 13.304247367314456 -11.342098654840445 0 0 0
1247 1 4.345402820911527 10.02116059773951 -13.272027883843595 0 0 0
1336 1 5.857454148245932 9.6143830491709 -9.606884004458468 0 0 0
1246 1 4.145295511599528 11.357858191398176 -10.879751756257281 0 0 0
1137 1 4.361028931417881 12.576389339958922 -12.826328057678788 0 0 0
1248 1 6.173157694699604 10.665319710727658 -11.829928813667987 0 0 0
60 1 6.564872384471595 12.142352165466342 -14.014382082019743 0 0 1
1116 1 5.835351540648386 11.955412591654941 -9.283360464068558 0 0 0
72 1 6.625026929095693 9.623711184807384 -14.334147082375157 0 0 1
1229 1 8.072739700645084 9.073261307135422 -10.733524179671019 0 0 0
1140 1 10.122872087059552 -13.333506885636453 -11.015717727562912 0 1 0
1118 1 7.975113747839391 11.496563135392687 -10.330420051980365 0 0 0
1139 1 8.303612825543123 12.672439078516536 -12.495207509320585 0 0 0
1231 1 12.004921484759482 9.231997942300428 -10.39704954692868 0 0 0
1249 1 8.424170865937452 10.269537962351148 -12.890482967270263 0 0 0
1846 1 10.47551635099969 12.107298874596754 -13.609095612604152 0 -1 0
1252 1 12.337114707489103 12.943439622030432 -12.13333155573654 0 0 0
1340 1 9.928601352291853 9.802077605464277 -9.234387371547356 0 0 0
1363 1 12.393831269751793 10.482577709301317 -12.57856418978817 0 0 0
1120 1 12.041800275228859 11.725794250529958 -10.0992420139555 0 0 0
1250 1 10.128344919759243 11.056440074441284 -11.48196638262334 0 0 0
1251 1 10.691836909182467 9.753732501045548 -13.977928844443147 0 0 0
1230 1 9.823849916801557 12.223986676521339 -8.971814069858091 0 0 0
1612 1 -12.443913027548119 -10.195694081839271 -8.773708307245412 0 0 0
1591 1 -11.05370235430512 -8.29045303448697 -4.580521948936134 0 0 0
1706 1 -12.849582627998764 -11.257285811782165 -6.61658199092345 0 0 0
1707 1 -10.623825301203171 -11.974902971108909 -7.635806143662124 0 0 0
1611 1 -12.972750820127262 -8.825082623321865 -6.0577875540515915 0 0 0
1590 1 -13.398783172598876 -10.107076388601815 -3.91962178326631 0 0 0
927 1 -11.067481978862038 -10.69143711961146 -5.124553472292412 0 1 0
1614 1 -10.622586384596138 -9.5305907646875 -7.077188017690057 0 0 0
1589 1 -13.08163250748052 -12.453549841396665 -4.493663694494623 0 0 0
1689 1 -9.203255838054755 -12.35490105972333 -4.026670523410388 0 0 0
952 1 -10.897517440905322 -13.079175121542143 -5.441632616113521 0 1 0
1593 1 -9.372036543419952 -9.981367736767567 -3.607966244228182 0 0 0
1615 1 -8.868672483533839 -8.722414248334385 -5.68845789564447 0 0 0
1709 1 -8.850760639090904 -11.064844455238728 -6.241703204494629 0 0 0
1728 1 -8.496782566762679 -9.849687317844626 -8.437850334197986 0 0 0
1805 1 -4.483886892846062 -12.310871707929254 -8.407204047630666 0 0 0
1710 1 -6.665396173516019 -11.543158959340143 -7.284574479915183 0 0 0
1595 1 -7.080681795461692 -10.473074604480114 -4.72558680333038 0 0 0
1616 1 -6.721366192679401 -9.078265475372714 -6.795453732290538 0 0 0
1711 1 -4.864816933030431 -11.097040432049152 -5.72612253889281 0 0 0
1712 1 -4.430484899525952 -9.755415909788175 -7.85742397128637 0 0 0
1692 1 -7.018395412013484 -12.995891634700824 -5.096000358418712 0 0 0
1617 1 -4.875398120764915 -8.572915195594664 -5.348031604665003 0 0 0
1693 1 -5.1550145114274795 -12.243735675357891 -3.651761542913084 0 0 0
1481 1 -7.094426536602427 -8.053896768332415 -4.204318164171275 0 0 0
1596 1 -5.2705311673513275 -9.799008347142994 -3.2689429899964217 0 0 0
1483 1 -3.0392354297026625 -7.966850712387483 -3.8278601356993924 0 0 0
1597 1 -3.095835886300703 -10.377980917599613 -4.209768117971869 0 0 0
1694 1 -2.8214333070650746 -12.812143239531755 -4.816297002899034 0 0 0
1793 1 -2.6942094561263445 -11.561193589061448 -6.708124012714439 0 0 0
1041 1 -0.5665114319993592 -11.98422011717631 -7.904155633619332 0 1 0
1714 1 -0.545865267653662 -9.630326210501366 -7.552967767867066 0 0 0
1713 1 -2.689391115200193 -9.163028780584455 -6.399791139586159 0 0 0
1696 1 -0.7466847357207183 -10.70983737755887 -5.314328436181473 0 0 0
1780 1 1.2017623215314472 -12.528153873143369 -4.390208790026723 0 0 0
1795 1 1.369484459031698 -11.344261007030745 -6.527929829139006 0 0 0
1715 1 1.3072903784768695 -8.910896760649113 -6.125056577282066 0 0 0
1697 1 1.1655245464019846 -10.16454803927431 -4.017929772668571 0 0 0
1599 1 -0.7710867015600975 -8.256953308053122 -4.889201697542358 0 0 0
958 1 -0.6930410181680084 -13.19329665163773 -5.7918183662937075 0 1 0
1677 1 -1.064562269303046 -12.086942911094605 -3.3538303329423638 0 0 0
1030 1 5.617632319870694 -12.296380213894357 -8.82815359441426 0 1 0
1782 1 3.1942066787437113 -10.731824435665747 -5.1091726007001075 0 0 0
1796 1 5.764228544246478 -9.829582713233382 -8.406190971244465 0 0 0
1698 1 5.329412885139874 -8.792755933614362 -5.814225262849131 0 0 0
1783 1 5.458967975489564 -11.289845232966316 -6.258893631340211 0 0 0
1797 1 3.5116520390539954 -9.492337074818924 -7.224484845441051 0 0 0
1836 1 7.510994274920886 -11.81530599584249 -7.322639130395524 0 0 0
1785 1 7.472700588740679 -9.253821603186637 -6.917367633106116 0 0 0
1831 1 7.215066540384875 -13.072015570019763 -5.096356061825594 0 0 0
1029 1 3.532644859641792 -11.8637224445461 -7.629971244835823 0 1 0
1786 1 7.187822148198467 -10.503758174164577 -4.74183635631381 0 0 0
1771 1 5.169772537274852 -12.32902305569601 -4.094347761223496 0 0 0
1784 1 4.961328328682633 -9.98920050813878 -3.57250514747526 0 0 0
1781 1 3.35136450755029 -13.225176841242748 -5.63702806888638 0 0 0