LAMMPS data file via write_data, version 2 Aug 2023, timestep = 0, units = metal

1872 atoms
3 atom types

-13.866737591752605 13.866737591752605 xlo xhi
-13.928684980806194 13.928684980806194 ylo yhi
-14.276466842183368 14.276466842183368 zlo zhi

Masses

1 55.847
2 1.008
3 1.008

Atoms # atomic

951 1 -11.181094791388768 -10.036233671667173 -11.970269210178634 0 0 0
1005 1 -11.712877588899943 -11.400514303937916 -9.850068692681525 0 0 0
1095 1 -11.208642159048152 -8.74159247035525 -10.107192501149338 0 0 0
960 1 -9.106208889380387 -11.882444775923448 -11.947118957695858 0 0 0
953 1 -11.487876169247334 -12.56834967788455 -11.864105728046006 0 0 0
1108 1 -9.30537534428434 -10.735378599757643 -9.985889210572957 0 0 0
952 1 -8.838659867400443 -9.298702350002042 -12.089936263382123 0 0 0
1094 1 -13.485980509220376 -9.704545386140385 -10.020241482162465 0 0 0
1153 1 -13.551114268051661 -10.826487981585217 -12.112161745259378 1 0 0
1258 1 -12.39375671849037 -11.692833601855476 -14.001344859903423 1 0 0
1358 1 -12.086774604056147 -9.091071189329133 -14.118480334227561 1 0 0
972 1 -10.12685773404442 -13.449772548892717 -9.974386986655073 0 0 0
949 1 -10.150199732828753 -10.904950751394058 -13.910507519303884 0 0 0
993 1 -9.787289912369404 -8.39405717532628 -14.048093304889854 0 0 0
961 1 -6.787336230453074 -11.03976078449147 -11.893522090109942 0 0 0
1017 1 -4.42797636666103 -10.222539107886064 -12.100072704131273 0 0 0
1109 1 -7.05029180033895 -9.995278583679873 -9.955284486420043 0 0 0
1226 1 -4.905129401300332 -9.026981960916839 -9.9070400287323 0 0 0
1030 1 -5.298767030595661 -11.795492391851605 -10.046307951349696 0 0 0
1018 1 -7.779047460996519 -12.746861647496296 -10.098234279722577 0 0 0
1123 1 -3.0944969482614813 -10.885043125539795 -10.048339898212095 0 0 0
973 1 -4.375323982651556 -12.762072244120148 -12.070344289742671 0 0 0
1004 1 -6.587910924059806 -8.503190287817226 -11.910281991168326 0 0 0
963 1 -3.0344343946926458 -9.938900747923853 -14.138919673168399 0 0 0
954 1 -8.00857891131871 -12.710939520665715 -13.96986168072816 0 0 0
997 1 -7.817446624229944 -10.318944229649139 -14.118249449931252 0 0 0
962 1 -5.593354478014309 -11.647491504679515 -13.964841076072643 0 0 0
948 1 -3.366146156851814 -12.403722853908363 -14.21563646190268 0 0 0
1043 1 -3.5326988645334776 -13.713002928126894 -9.970432977611509 0 0 0
947 1 -6.652001269077914 -13.671822406324006 -11.999394775517535 0 0 0
176 1 -5.269069836019698 -8.932856045963097 -13.982036532899162 0 0 1
1110 1 -1.8197835952354176 -9.202778304334744 -12.21104869124127 0 0 0
1031 1 0.34990485742377864 -10.785715858815792 -11.835841295030612 0 0 0
1135 1 -0.7720768489723628 -9.963328597548973 -10.074927391312475 0 0 0
1240 1 1.6375387826855548 -9.081301339558111 -9.95985580775659 0 0 0
974 1 -2.1348753358631747 -11.768452794280416 -12.250659237119232 0 0 0
1148 1 1.0821080856967669 -11.995048887513683 -10.014546045670752 0 0 0
1044 1 -1.33376224419918 -12.645913069151707 -10.157007202312977 0 0 0
976 1 1.3422931957106439 -11.99944646590717 -14.043733432442933 0 0 0
1782 1 0.4649860119203062 -13.413676574469298 -11.904167822540671 0 1 0
31 1 -0.8473912784648867 -10.9126624882288 -14.195699314959779 0 0 1
1032 1 2.7135691563431426 -12.751260504872796 -11.8732953213568 0 0 0
1697 1 -1.0171311771899632 -13.338675610274057 -14.248788468866799 0 1 0
1124 1 2.787134326249449 -10.119072490769573 -12.019148217604908 0 0 0
1019 1 -0.5493013355058984 -8.533381538346834 14.255153542492167 0 0 -1
1058 1 2.4882300950576504 13.70079896107544 -9.903974192810615 0 -1 0
1020 1 1.5718534276627594 -9.533160264135578 -14.017553983969801 0 0 0
1139 1 7.457207042599022 -10.84532332113087 -12.035150261060407 0 0 0
1254 1 3.433393958477696 -11.150735067343724 -10.009448636449251 0 0 0
1136 1 5.067090470533165 -9.554664884370634 -11.966783110063126 0 0 0
1151 1 5.756478731010747 -10.501555522788118 -9.947321611213425 0 0 0
1046 1 5.032458752641512 -12.11326926526272 -12.067277651282398 0 0 0
1267 1 7.327335122745728 -12.174134030135786 -9.999937699203455 0 0 0
1150 1 4.7517135707034885 -13.077897884679091 -9.935233382852694 0 0 0
1255 1 8.078389750631798 -9.374722727086215 -9.97508343954216 0 0 0
988 1 3.8497311970051253 -10.608817851105762 -14.138308546382918 0 0 0
1783 1 3.6496522512301457 -12.976453375200236 -14.05570535755395 0 1 0
1241 1 4.063333701605069 -8.443579650391605 -10.009795725848733 0 0 0
1138 1 7.079161218854855 -13.452740508850532 -12.220845313037595 0 0 0
530 1 6.15949376946701 -11.580326351804965 -14.13703352656723 0 1 1
1047 1 6.369972464506807 -9.110272171548617 -14.006544873467458 0 0 0
1846 1 8.350528561969016 -12.541649928738117 -14.143104529609806 0 1 0
1242 1 7.507744510810115 -8.360191663590669 -12.137781850706983 0 0 0
1048 1 8.641031784755244 -10.154518167493379 -14.232392330391935 0 0 0
959 1 -13.848944891902695 -12.346898984420845 -10.004900725184694 0 0 0
1002 1 12.06412288028814 -10.58262888210012 -10.0379902604376 -1 0 0
1137 1 9.953282026164056 -10.12890248432645 -12.253583880167842 0 0 0
950 1 9.628768776360777 -11.343022681006047 -10.070721295009568 -1 0 0
1257 1 12.257432623538376 -9.145277573604695 -12.131622219870458 0 0 0
1163 1 11.900434559060075 -11.885485016220537 -12.185500909653063 0 0 0
1243 1 9.469839307412384 -12.780481412127958 -12.002253284579897 0 0 0
958 1 11.294870708015443 -13.188694991061375 -10.001076184478563 -1 0 0
1061 1 10.736965131514465 -11.271026975664695 14.193193236003136 0 0 -1
1367 1 10.394884861259383 -8.709105491853052 -10.09346359760021 0 0 0
1152 1 10.992162556276378 -8.690985460466365 14.216617057264575 0 0 -1
1154 1 13.071341048859464 -12.211122210638562 14.206187057409572 0 0 -1
1141 1 13.32182171065447 -9.767877337925832 -14.1747610068148 0 0 0
1798 1 10.597332366986189 -13.667692099442359 -14.024363024549036 0 1 0
1073 1 -13.098679201747165 -8.133351448742257 -12.140698795724045 0 0 0
1212 1 -8.820443273764262 -8.017940207915885 -10.014472512703314 0 0 0
995 1 -10.833294533842393 -7.311674228868567 -12.099680299821806 0 0 0
1083 1 -12.845542615487654 -6.8391715431290905 -10.064977816839601 0 0 0
1198 1 -10.512784779510104 -6.049608705163018 -9.947475923430918 0 0 0
1075 1 -10.513197785693926 -4.737376098809415 -12.01992512711568 0 0 0
1186 1 -12.122623636611051 -4.057029582663922 -9.89672152079602 0 0 0
1298 1 -9.834876681285126 -3.207919896261556 -10.221215792362688 0 0 0
1357 1 -12.745733559527256 -5.353179017797947 -11.887232475735145 1 0 0
1467 1 -12.584833370378652 -2.9517374100558165 -12.006541776141924 1 0 0
996 1 -8.515274408056499 -6.504502805207153 -12.032057332734206 0 0 0
1077 1 -11.837265953745574 -6.4597839125196606 -14.119557730732529 0 0 0
486 1 -9.53512556944047 -5.666505212910849 -14.012355541597785 0 0 1
473 1 -11.718688205475878 -3.7638455839112606 -14.171022811964654 0 0 1
472 1 -9.318651196623877 -3.204245117941552 -14.204702115201938 0 0 1
1084 1 -8.127965922993418 -3.9111684879063695 -12.237238908514492 0 0 0
1199 1 -8.151949404966569 -5.26755448992793 -10.09464734246454 0 0 0
1096 1 -4.164334312047989 -7.654591592307114 -12.022254373246641 0 0 0
1213 1 -6.498686472921786 -7.0459133612553355 -9.946703499268924 0 0 0
1326 1 -4.011079904692236 -6.192433968142686 -9.913736810207634 0 0 0
1085 1 -6.174467709924584 -5.760049649350535 -12.109730045615063 0 0 0
1200 1 -3.864559221256359 -5.076952738640559 -12.091518910770095 0 0 0
1312 1 -5.806481964023048 -4.451600894645997 -10.10072642449489 0 0 0
1188 1 -5.715328825308328 -3.198213404710607 -12.231018756351038 0 0 0
1313 1 -3.3739629970945284 -3.603752569076171 -10.080665063769644 0 0 0
998 1 -7.428647172093702 -7.773834151684142 -13.865505716162252 0 0 0
1078 1 -7.216643775664318 -4.8456523433749545 -14.195926288976995 0 0 0
1007 1 -2.9196795573092214 -7.478315163683374 14.271326951580662 0 0 -1
1086 1 -4.924712718297219 -4.066881028220351 -14.262027239999409 0 0 0
1111 1 0.483208584546027 -8.275955540902661 -12.181243987925518 0 0 0
1098 1 -2.7679111312349285 -5.1651699979191505 -14.19888669308253 0 0 0
1227 1 -2.5890020604767336 -8.165250965017135 -10.023345516311297 0 0 0
1340 1 -0.14181277247762658 -7.336682160242899 -10.185850374388595 0 0 0
1097 1 -1.8732997095687 -6.6746060115900665 -12.245451633436033 0 0 0
1201 1 -1.5264349053530193 -4.098094676519233 -12.240669878869195 0 0 0
1228 1 0.5717189990924201 -5.748401633854327 -12.146974006506413 0 0 0
1327 1 -1.5609067640094683 -5.358937256992151 -10.087760439032401 0 0 0
1303 1 0.9373754833951331 -3.029902998514352 -12.096246546873669 0 0 0
1438 1 0.7538443481564823 -4.465453401640394 -10.062534747180877 0 0 0
1451 1 2.0633111162655897 -6.50961844772332 -9.984460156906788 0 0 0
1113 1 2.0204329857994328 -4.688216645480184 -14.211654588932612 0 0 0
1112 1 1.728052650379949 -7.063711106973363 -14.180531145108484 0 0 0
1315 1 -1.102997595824121 -2.7862518338816304 -10.1442473081856 0 0 0
1099 1 -0.4557581170496725 -6.106955379333956 -14.214334090592503 0 0 0
1214 1 -0.26921828663189906 -3.7399470763751133 -14.122233230749833 0 0 0
1439 1 2.89948883764219 -3.7744763785437367 -10.068595217956064 0 0 0
1122 1 2.832725937693356 -7.600094905431061 -12.111403913375419 0 0 0
1328 1 2.967966094561165 -5.134319807115935 -12.109295894289637 0 0 0
1034 1 3.915309067225712 -8.313387354333114 -14.206095423248831 0 0 0
1354 1 6.331865408150948 -7.605870341231349 -10.015513519018874 0 0 0
1229 1 5.2269665804849925 -6.933275075051794 -12.142321182291134 0 0 0
1342 1 7.607223999340155 -5.767397712347055 -12.064834265626011 0 0 0
1329 1 5.317110905953909 -4.307151927119829 -12.110724098987566 0 0 0
1341 1 4.553766189810732 -5.817966442095935 -10.148070181277566 0 0 0
1453 1 7.968744409725803 -3.297019365986026 -12.18759506007549 0 0 0
1464 1 6.821770099841347 -4.743189415643375 -9.964142399008107 0 0 0
1217 1 4.541123209128523 -3.258346908657872 -14.080079391833932 0 0 0
1558 1 5.173960563757989 -2.878286213006378 -9.812973621175548 0 0 0
1125 1 4.187354657320638 -5.891048027618018 -14.120832748016294 0 0 0
1230 1 6.7952717897444845 -4.35422070799137 -14.05598885435299 0 0 0
1126 1 6.358216255201851 -6.793866889877212 -14.154925185354966 0 0 0
1466 1 8.727601519518265 -6.669128020203729 -10.237165373335475 0 0 0
1345 1 13.757567341306276 -4.945910245533604 -14.090383986954773 0 0 0
1179 1 13.267167147924157 -4.8061552357544475 -10.085030579737419 -1 0 0
1082 1 12.681584785156799 -7.775219392842755 -10.025245047882853 -1 0 0
1127 1 10.050897137058671 -7.255052133952545 -12.216819836461509 0 0 0
1256 1 12.550834440395692 -6.230262863302432 -11.98587276341654 0 0 0
1074 1 11.093822961215595 -5.812537605463536 -10.069340537595039 -1 0 0
1343 1 10.342207243388659 -4.803367243247468 -12.196783518164873 0 0 0
1356 1 12.569836646475688 -3.5868264995018126 -12.280759201693748 0 0 0
1571 1 9.330259245201924 -3.8145168638122993 -10.224261438265579 0 0 0
1177 1 11.602238258663837 -2.8477594453547646 -10.124805089777336 -1 0 0
1176 1 13.345523382356445 -7.425248572330195 -14.252744593489162 -1 0 0
1244 1 11.256653414052595 -6.233540601101503 -14.185958345839872 0 0 0
1231 1 8.976406436725268 -5.303377911350449 -14.130995512550323 0 0 0
1344 1 11.498847747406165 -3.828884700380632 14.207648011313662 0 0 -1
1076 1 -10.284646011790294 -2.1051750226620314 -12.312117414352915 0 0 0
1287 1 -11.423955954296677 -1.317740702199531 -10.172616293058459 0 0 0
1178 1 -12.5511790358492 -0.41128009814076805 -12.065350079075726 0 0 0
1276 1 -10.214934352473279 0.24479166124408103 -12.113144227277228 0 0 0
1376 1 -12.508580753380286 1.9270164512697008 -11.967140112413155 0 0 0
1385 1 -11.01139502221113 1.3908916049153 -10.048890395098514 0 0 0
1279 1 -13.297943417913034 0.5977765585063874 -10.032843807770682 0 0 0
1288 1 -9.090194809273466 -0.46116238931581854 -10.172136738879393 0 0 0
457 1 -8.947718136438768 2.174686209925026 -14.0823360043671 0 0 1
1504 1 -8.750403492556789 2.047941855195372 -10.095347692383918 0 0 0
625 1 -8.977125350344899 -0.5416450596541491 -14.184927783180429 0 0 1
640 1 -11.195000144681062 1.2646422930314376 -14.188823283749041 0 0 1
1662 1 -13.543670161470034 2.486863483932458 -14.075952903289114 1 0 0
1562 1 -13.587745107932186 0.05329009070009505 -14.116567498691623 1 0 0
1180 1 -11.317457608416653 -1.3849332960471354 -14.246170589097826 0 0 0
36 1 -13.840949908527394 -2.378828999546574 -14.088550237292841 1 0 1
1285 1 -13.648179848201739 -2.187179955721229 -10.184579641696821 0 0 0
1300 1 -3.4362009985215636 -2.1547078131404085 -12.103793971477288 0 0 0
1299 1 -7.382119745358403 -2.5133897621514656 -10.08125195660702 0 0 0
1187 1 -7.956277898679048 -1.4024043568182805 -12.030944106819751 0 0 0
1280 1 -7.845435290666794 1.2210946541441512 -12.147127110639452 0 0 0
1301 1 -5.0634051329743315 -1.7376581982065833 -9.993086232285393 0 0 0
1289 1 -5.671499607853836 -0.4687029118472026 -12.115688397913535 0 0 0
1397 1 -6.883386058758455 0.38320399330839905 -10.027671651247225 0 0 0
1281 1 -5.482088227694586 1.9421776102796624 -12.059236432460253 0 0 0
1518 1 -4.347876229823388 1.054604879563394 -10.14119983033579 0 0 0
1290 1 -3.192946123243974 0.2604210824867579 -12.1838365993692 0 0 0
1190 1 -4.275843981010745 0.9458804819073414 -14.1698202299932 0 0 0
1189 1 -4.566335534534437 -1.5198996737760169 -14.200662860693223 0 0 0
1181 1 -6.981969429607142 -2.2372955628906155 -14.154489569052796 0 0 0
1396 1 -3.106121836222737 2.7647015435294815 -12.143997149456908 0 0 0
441 1 -6.640132553614094 2.882650271431265 -14.062353478189591 0 0 1
456 1 -6.79728823302444 0.3516171583625418 -14.156207411655915 0 0 1
1423 1 -2.741017884654191 -0.8563282981709843 -10.031863933423121 0 0 0
1437 1 1.3798320237401 -1.7964747214007755 -10.01323229462989 0 0 0
1302 1 -1.1247212143487353 -1.554594901289109 -12.187924801175804 0 0 0
1425 1 1.5202201158220419 -0.4617617717464668 -12.052601908803247 0 0 0
1410 1 -0.8646061139441965 1.0548061495681864 -11.990928853672184 0 0 0
1411 1 1.5440434240567402 1.9804753204609842 -12.050490943043577 0 0 0
1424 1 -0.4776639326479213 -0.016849814959439158 -10.095068173509176 0 0 0
1519 1 -1.9826511037873225 2.0351465317155757 -10.1210517177986 0 0 0
1544 1 1.8717812685768251 0.9380184375276102 -9.931829320948694 0 0 0
1634 1 0.36708728438868476 2.900845278150575 -10.068580674781312 0 0 0
256 1 2.5474525662197838 0.18895656993851517 -14.115523214511665 0 0 1
1203 1 0.33586260561374104 1.248492941205983 -14.158886611996122 0 0 0
1087 1 -1.9163225849619767 -0.32356220798919644 -14.110009028235671 0 0 0
1314 1 2.351453340353574 -2.292657721621147 14.262028289077964 0 0 -1
271 1 -1.9096494425531372 2.153679320895188 -14.170512388418025 0 0 1
1216 1 0.2099869710878206 -1.2463767835988389 -14.167315639417707 0 0 0
241 1 2.818580768891083 2.6035732038571506 -14.051454709666237 0 0 1
1202 1 -2.3514666539238984 -2.708213124964761 -14.121418793072758 0 0 0
1215 1 3.3965866394370696 -2.4535827058427415 -12.043403544087075 0 0 0
1559 1 7.505719229645672 -1.9919324934213805 -9.88646031377538 0 0 0
1532 1 3.7268685955254828 0.4850632676843176 -11.984633720863005 0 0 0
1426 1 5.581576145985045 -1.723318147824406 -11.838745879255988 0 0 0
1545 1 3.5100024286496545 -0.93714599054438 -9.948904763995516 0 0 0
1533 1 6.155538881191271 1.211361925607541 -12.005930191164456 0 0 0
1547 1 5.863541970067812 -0.1817153066716397 -9.948451551741796 0 0 0
1647 1 4.287373550703736 1.6312364708943896 -10.034825032696896 0 0 0
1546 1 8.088922257616167 -0.7864092599128991 -11.941380256634977 0 0 0
1661 1 8.256139158219876 0.7879265334351899 -10.025698825430045 0 0 0
1648 1 6.483067799983834 2.635534825048259 -10.092420090982301 0 0 0
1316 1 4.8325527152350904 -0.8401063489225038 -14.083887494811552 0 0 0
1440 1 7.229018844420347 0.5815363099073085 -14.073166428148241 0 0 0
1317 1 4.9418422638963815 1.4490377833987136 -14.192380559526036 0 0 0
1330 1 7.0131024496072865 -1.8771992065831462 -14.035513988556946 0 0 0
1535 1 8.407056346198535 2.0839089264088013 -12.005388659299282 0 0 0
1331 1 9.163319314454396 -2.956395391118278 -14.141559663524424 0 0 0
1454 1 10.476446615118148 -2.019339025888101 -12.1704039203049 0 0 0
1560 1 12.861845817170062 -1.0916206671369615 -12.10350634070506 0 0 0
1672 1 9.87984353526321 -1.133536142276819 -10.046775704335472 0 0 0
1441 1 10.47243598692482 0.363842483046632 -12.120959626579246 0 0 0
1561 1 12.795018250937227 1.405920662200403 -12.054236944334844 0 0 0
1380 1 10.583496900659759 1.6965281262806098 -10.135974719627015 -1 0 0
1278 1 12.13103638722452 -0.2658765023242218 -10.00844009852089 -1 0 0
1382 1 12.978569842200566 2.55706659005447 -10.01786619932578 -1 0 0
1548 1 9.447483710699993 -0.4588061635856082 -14.08373072787709 0 0 0
1455 1 11.613741701311893 -1.3518045822914626 -14.212374004334018 0 0 0
1442 1 9.551737664950073 1.9290948299249795 -14.253442468387965 0 0 0
1456 1 11.767331056891718 1.0292169610846411 -14.17466642135838 0 0 0
1377 1 -10.201681586260076 2.9520068258506544 -12.116808825439591 0 0 0
1491 1 -12.425511656196647 3.5447747001004988 -10.056242130135063 0 0 0
1492 1 -10.054334757092448 4.2813465346381765 -10.113327996573343 0 0 0
1480 1 -12.23380739323142 4.88107726657214 -12.03080030469498 0 0 0
1580 1 -9.841789477943818 5.692376536334825 -12.03483728434491 0 0 0
1592 1 -11.986735909532143 6.1642008700636755 -9.933481541943213 0 0 0
195 1 -11.75405357773335 7.6525842926663845 -11.958111731340281 1 0 1
1593 1 -9.458292186168972 6.910800960868714 -10.040987819698195 0 0 0
1584 1 -13.472447928664304 8.146199063596088 -9.940011920272575 0 0 0
1378 1 -8.850345636029179 4.7553725825913435 -14.241572190784089 0 0 0
754 1 -8.531898786405058 7.4946537272941764 -14.137237009962949 0 0 1
626 1 -9.414995865699941 8.34728929302731 -12.10486622599418 0 0 1
610 1 -10.863175325711925 6.235154332549689 -14.079805119479293 0 0 1
186 1 -12.999394970300582 7.416648998346917 -14.12418647319339 1 0 1
1374 1 -13.374081767992164 4.880833999031589 -14.137138732767584 0 0 0
1275 1 -11.044641293213413 3.7318004773714346 -14.1129587798005 0 0 0
1505 1 -6.405709511581819 3.1037566405504275 -10.140981150056197 0 0 0
1605 1 -7.772928820761061 5.086444473369665 -10.058409795171906 0 0 0
1384 1 -7.957638523817876 3.8553140479520227 -12.007530253497595 0 0 0
1619 1 -4.052796014672804 3.6717019979684036 -9.969917399113188 0 0 0
1493 1 -5.531749928874838 4.296437839350036 -12.095865430733921 0 0 0
1484 1 -7.441611093474497 6.411790748756564 -12.161613737221407 0 0 0
1485 1 -5.071940732791957 7.230810574507414 -12.146289491877543 0 0 0
1606 1 -5.554739973833723 5.833045297856076 -10.029446468202874 0 0 0
1708 1 -7.2401077477452835 7.752442913220756 -10.118680619753212 0 0 0
1722 1 -3.2212339071055727 6.650088599849864 -9.989037460064683 0 0 0
1494 1 -3.246486159641922 5.230694986612226 -11.82948017381301 0 0 0
609 1 -6.447848165269706 5.526031296136248 -14.170639586064356 0 0 1
594 1 -6.240965134887833 8.383570212709026 -14.039775469881796 0 0 1
1594 1 -2.6246652369331027 8.052633223205456 -11.964188637491878 0 0 0
1386 1 -4.188487624221544 5.907938481674096 -14.227673421029577 0 0 0
1506 1 -0.8161927822042614 3.6436204656734095 -12.145021657153508 0 0 0
1620 1 -1.6244632574196274 4.726097096570074 -10.006713836830217 0 0 0
1507 1 1.7451366556821153 4.434357306543179 -12.012217191688793 0 0 0
1607 1 -0.7632431894159417 6.025849497958228 -12.206530582006192 0 0 0
1608 1 1.7115222296695904 7.089229907094998 -12.099377418480678 0 0 0
1736 1 0.6721540129378116 5.527028167856281 -10.006930160086947 0 0 0
1723 1 -0.917458685569235 7.419998509148693 -10.017533851997623 0 0 0
1738 1 2.7337377706208397 3.5321633195610804 -9.986138147117616 0 0 0
1808 1 1.3752719858840532 8.354361721144004 -10.007248912324076 0 0 0
424 1 -1.8699371577781996 4.716449158403696 -14.04699048356276 0 0 1
392 1 2.914222915919753 5.067978508914612 -14.091286416877564 0 0 1
409 1 -1.5828272297461776 7.137003494215742 -14.11213655231346 0 0 1
408 1 0.5901680696244416 5.989316141791777 -14.14703980311792 0 0 1
1520 1 4.073557392321975 3.079843015027377 -12.047801367509962 0 0 0
1737 1 3.0282881584959203 6.302879307483538 -10.115840056699216 0 0 0
1633 1 6.40392977211472 4.1036469221534535 -11.9836903411905 0 0 0
1750 1 4.796693763263027 4.569465951302627 -10.039840708934932 0 0 0
1621 1 4.132568236323804 5.663370463640062 -12.16997914951737 0 0 0
1622 1 6.6265246768861825 6.735244404061687 -12.04338353422184 0 0 0
1822 1 5.321478091582497 7.179715771959403 -10.049483339368614 0 0 0
1751 1 7.045624375039248 5.406974980298029 -10.052407701249077 0 0 0
1724 1 4.088953165472569 8.163372716698634 -12.094179801324096 0 0 0
225 1 7.7139970949146335 5.467964884262701 -13.963470808103498 0 0 1
1412 1 5.084978758226688 4.047897141936717 -13.987429603161079 0 0 0
210 1 7.813358562526984 7.986991770334184 -13.958771331489157 0 0 1
1825 1 7.596302286623166 8.109631686050124 -10.094677908847007 0 0 0
1534 1 7.365923571442371 2.9671449651193296 -14.038203908930031 0 0 0
1635 1 5.370842459528996 6.377238104405672 -14.11252667894096 0 0 0
1649 1 10.728968561653383 3.054906895266475 -12.151519122634035 0 0 0
1636 1 8.865622116971517 4.834751038835405 -12.03986531015929 0 0 0
1483 1 13.503844241117653 5.355490852022184 -10.089273483125908 -1 0 0
1663 1 13.568273101667321 6.751954310139984 -12.118075470448607 0 0 0
1764 1 8.768252281596238 3.415919127472078 -10.125426135947897 0 0 0
1753 1 13.209087351146147 3.941304547484579 -12.001338814666092 0 0 0
1810 1 9.052336481890018 7.459739049859229 -11.946681408153017 0 0 0
1482 1 11.070273990885804 4.182623989407789 -9.997712879394955 -1 0 0
1752 1 11.291069684325079 5.562691714961987 -11.911399312041592 0 0 0
1583 1 11.931666203879276 7.262537915199351 -9.979604440845115 -1 0 0
1579 1 9.613185564304422 6.196888903873392 -9.99873393492561 -1 0 0
1739 1 11.341635784592095 8.150326621584265 -12.083138741967176 0 0 0
1549 1 12.348634961323354 5.946600440388272 -14.0756244504058 0 0 0
1650 1 12.006681270862595 3.5132442904635095 -14.141144202113095 0 0 0
187 1 12.40160913501691 8.39289332699528 -14.13086502094682 0 0 1
196 1 10.148893514626328 6.8176768703991595 -13.976150120293408 0 0 1
943 1 -10.356272887434471 -13.576750673435313 -13.92915889799371 0 0 0
1694 1 -11.186737989314576 8.905601466074609 -9.984273571568949 0 0 0
971 1 -12.440599394907736 13.474229497190462 -9.95295882221916 0 -1 0
1679 1 -11.516851032085285 10.246548836949463 -12.173481305573759 0 0 0
946 1 -12.892558314524065 10.879186170290142 -10.079343653602416 0 -1 0
942 1 -9.077202586307859 13.468072164207102 -12.030282767347977 0 -1 0
940 1 -11.456807403734148 12.688989548340208 -12.008877953484962 0 -1 0
1585 1 -9.032818689869135 10.987394653934954 -11.825800893594666 0 0 0
983 1 -10.517256396338762 11.587824779615056 -9.753903098116657 0 -1 0
1695 1 -8.829756360639305 9.709293255880104 -9.912350345436113 0 0 0
1685 1 -10.225084620988465 11.38028604798223 -14.044263504591424 0 0 0
770 1 -10.661243726984269 8.825072517882903 -14.09995558697577 0 0 1
1812 1 -12.810426481282619 10.014168038055564 -14.130675126296886 1 0 0
1165 1 -12.48844353585431 12.469838270111604 -14.110207861930403 1 -1 0
1062 1 -13.803936414304777 -13.605703229352804 -12.25355870976506 1 0 0
1709 1 -4.823407232773839 8.533961477481734 -10.041293135850493 0 0 0
723 1 -5.702932031021398 13.774114437897667 -14.059256299126531 0 0 1
739 1 -8.17941397931276 10.091872347662898 -14.078037540334067 0 0 1
985 1 -8.1267828245495 12.53171772252267 -10.038805768771589 0 -1 0
1684 1 -7.060454347687474 9.193768235983198 -12.099968305620532 0 0 0
1586 1 -4.678431552745387 9.830087731586294 -12.054544001875254 0 0 0
1781 1 -6.54990041973324 10.49231745368561 -9.944338904985536 0 0 0
986 1 -5.811114445292143 13.290564204153332 -9.996827940222914 0 -1 0
1683 1 -6.544942399631148 11.725999529468735 -11.960437680413477 0 0 0
1686 1 -4.287437850762814 12.622840170967889 -12.080895624210479 0 0 0
987 1 -4.248608584420925 11.297381688808573 -10.193167945916887 0 -1 0
944 1 -8.143197012235301 12.518632507954015 -14.019142176289803 0 -1 0
738 1 -5.683414159512655 11.273991070739564 -14.122749197558338 0 0 1
578 1 -3.445019452715229 13.034250237503974 14.206690118851963 0 0 0
393 1 1.0257678342602397 8.570532058959236 -14.162304792877983 0 0 1
1595 1 -0.19418528156954373 8.74468518753732 -12.010049515324544 0 0 0
1794 1 -2.5162493666848977 9.370189233391011 -10.010141078974922 0 0 0
1696 1 -2.2994183275934965 10.856912841802176 -12.007079614279071 0 0 0
975 1 -2.0339019891318078 13.73733416573589 -12.07422618505214 0 -1 0
1711 1 2.060651979420806 9.827331250885424 -11.912243109698043 0 0 0
1795 1 -0.2227963768878478 10.336217655908436 -10.047014322226257 0 0 0
1045 1 -2.0110561971247662 12.258481339543158 -10.047623869561878 0 -1 0
1710 1 0.040996055558888855 11.797208072206631 -11.90514525787303 0 0 0
1033 1 2.453823703258214 12.4976653102999 -11.903510372680639 0 -1 0
1057 1 0.1764140163344603 13.144166613405508 -9.952297630731541 0 -1 0
1844 1 2.071634046303945 11.189066253754687 -10.001529349927525 0 0 0
546 1 1.2929883731798633 13.426628578780912 -13.990729125373457 0 0 1
577 1 -1.2781240258264006 9.604830390944874 -14.145836173417125 0 0 1
562 1 -1.2019506353623584 12.071450110345749 -14.04524777904872 0 0 1
561 1 1.1730099730445538 11.060871845083229 -14.11119388011648 0 0 1
361 1 5.827690086930447 13.846663003307954 -14.135342853108309 0 0 1
1797 1 6.644434501521987 9.295062163877093 -12.013185085183872 0 0 0
1809 1 3.7254400003633013 9.20561688807719 -9.976774019900956 0 0 0
1853 1 6.084977466967976 10.122627571096414 -9.986853218458517 0 0 0
1796 1 4.510848032205933 10.649631574821571 -11.958498525667894 0 0 0
1784 1 4.783427531958152 13.186138532535592 -12.058902861991527 0 0 0
1161 1 4.333051824066443 12.046482789613401 -9.883382777568691 0 -1 0
1059 1 6.841253807889833 11.905752151916653 -12.196721839958714 0 -1 0
1162 1 6.783734573049957 12.947114704996656 -10.035585439519792 0 -1 0
1725 1 7.8122955431128265 10.476401566161394 -13.980089109496477 0 0 0
345 1 8.079863398689222 12.949697020552149 -14.08834844264898 0 0 1
377 1 3.356765733630519 9.917322665540118 -14.166147909791711 0 0 1
545 1 3.4297874801162234 12.441063300353617 -14.018506796038228 0 0 1
1172 1 8.344685857770218 10.940220383492145 -10.053167429870891 0 -1 0
226 1 5.504016132447214 8.858547867827783 -14.096240837215003 0 0 1
183 1 13.768929937075514 11.722782796085026 -12.231948507740615 0 0 1
1824 1 -13.818234269021321 9.229045326955701 -12.146963377367442 1 0 0
1164 1 8.955770862632184 13.834889885145328 -9.959827704355124 0 -1 0
1681 1 10.055259356210433 9.19268212373541 -10.034473901441778 -1 0 0
969 1 12.866487127635677 12.592302652773737 -10.094257288994582 -1 -1 0
1682 1 12.492803012194253 9.84546648557445 -10.00681011192824 -1 0 0
1845 1 9.199680467038712 10.017017837937265 -12.09402477569156 0 0 0
1852 1 11.489547297612349 10.568367359087302 -12.013226402730856 0 0 0
1060 1 9.153381471110075 12.52047210268468 -11.94791032310091 0 -1 0
941 1 10.597245395898257 11.85365653749634 -10.029530769393523 -1 -1 0
1854 1 11.484315510031431 13.277964786670188 -12.070562217266456 0 0 0
1811 1 12.66271322964157 10.838858508306787 -14.232728046811665 0 0 0
331 1 12.88036977230668 13.299845211566092 -14.147999134089877 0 0 1
344 1 10.36377573519743 11.835818957657084 -13.937689118313408 0 0 1
360 1 10.13673458333525 9.238363675041617 -14.096439023422064 0 0 1
1014 1 -11.673085226137877 -11.629198761002462 -5.976357115463793 0 0 0
1024 1 -11.214472217517873 -10.027607193807198 -3.9591762373531605 0 0 0
1106 1 -11.317023302192583 -10.152542862164479 -7.863245592016963 0 0 0
1105 1 -11.084558991815628 -8.801803104010904 -5.977768573392847 0 0 0
1118 1 -9.35273686613684 -10.78774521821645 -5.9284208754646865 0 0 0
1016 1 -9.700607320708333 -12.054433169835029 -8.025312331039878 0 0 0
1026 1 -9.822178611254257 -12.140361144784205 -3.912901814883165 0 0 0
1107 1 -9.016663850369781 -9.27388710488054 -8.017492541081374 0 0 0
1117 1 -8.868711694503734 -9.270300723552404 -4.061631235018295 0 0 0
1025 1 -12.190010102487733 -12.927109278199762 -4.055177752177247 0 0 0
1015 1 -12.027409943797888 -12.954989138119583 -8.001906313691848 0 0 0
1104 1 -13.531146372879295 -9.481640008142096 -6.014423396238108 0 0 0
1116 1 -13.51672711609586 -10.947585527113043 -3.947679369540454 0 0 0
1027 1 -10.095438696699397 -13.550476833429553 -6.004022120185626 0 0 0
1003 1 -13.775330079254434 -10.961128521043612 -7.887227938997041 0 0 0
1218 1 -13.26740717070295 -8.14567350412977 -4.029453626627269 0 0 0
1092 1 -13.000239167674028 -8.184798909401808 -8.075619538231887 0 0 0
1130 1 -7.4062087540562604 -11.244713522250125 -3.943923781662553 0 0 0
1120 1 -7.347501135927975 -11.217568213939721 -8.08446034277426 0 0 0
1119 1 -7.004197612630253 -9.873454249628601 -6.102197229344496 0 0 0
1131 1 -5.012784914818534 -10.430793870667967 -3.923952985298051 0 0 0
1121 1 -5.1150982570467285 -10.321958864606549 -8.002242679315884 0 0 0
1236 1 -4.789168534884661 -8.953314693987341 -6.024885811309749 0 0 0
1132 1 -5.338521676094642 -11.767533088886495 -5.978547300635457 0 0 0
1028 1 -7.618444648504835 -12.617800911362254 -6.068481010010732 0 0 0
1144 1 -3.160930838153215 -12.216473097628285 -3.878192483614951 0 0 0
1134 1 -3.2767258731783 -12.255246968346135 -8.06862068150182 0 0 0
1041 1 -5.6125618109150235 -13.17899559333983 -7.964645244152956 0 0 0
1040 1 -5.596651612518329 -13.028790340620443 -3.973121180634326 0 0 0
1133 1 -2.9672742990023018 -10.887614672799224 -6.005747451311015 0 0 0
1224 1 -6.734216689010065 -8.39765366971827 -7.988401986488425 0 0 0
1234 1 -6.638361726584031 -8.520657085024935 -3.952814854013427 0 0 0
1042 1 -3.555663327203092 -13.607233011615635 -5.961944636597874 0 0 0
1238 1 -2.730417043933304 -9.490225640784665 -8.021738703509065 0 0 0
1248 1 -2.7806235448284227 -9.432398221234726 -4.151229350109055 0 0 0
1146 1 -0.971127356499192 -11.415216252237144 -8.01660818890263 0 0 0
1145 1 -0.891921074448609 -11.50862552091309 -3.9535242925578373 0 0 0