LAMMPS data file via write_data, version 2 Aug 2023, timestep = 0, units = metal

1860 atoms
3 atom types

-14.182515776600077 14.182515776600077 xlo xhi
-13.834710368035593 13.834710368035593 ylo yhi
-14.089071850654717 14.089071850654717 zlo zhi

Masses

1 55.847
2 1.008
3 1.008

Atoms # atomic

1844 1 -10.978263218760066 -11.793331439717456 -9.633860008160244 0 0 0
1856 1 -10.007463975687351 -9.437146742354564 -10.98821805355812 0 0 0
1857 1 -12.481552527457872 -12.755005006356168 -11.98621522733185 0 0 0
1858 1 -12.352448601953858 -10.315646177399838 -10.97452143589408 0 0 0
1612 1 -13.391601680426 -12.530329613389775 -9.668614955154741 0 1 0
452 1 -11.97010217863443 -10.576075933775762 -13.30836518983365 0 0 1
1842 1 -10.144021432942623 -11.8065464739184 -11.848477205516733 0 0 0
1852 1 -13.797868697105867 -8.847342949003476 -12.428682837188257 0 0 0
570 1 -9.55764486294164 -9.85472421060376 -13.269693488711342 0 0 1
1845 1 -10.807594068662521 -9.51597854917053 -8.764612769803222 0 0 0
1846 1 -13.185606615475056 -10.319026018836698 -8.6656608740036 0 0 0
1608 1 -8.638235621702833 -13.137571392765928 -10.484362492468508 0 1 0
1843 1 -8.504638810757296 -10.862543864937363 -9.72562343859897 0 0 0
1792 1 -8.506151919364463 -8.599906988901548 -8.782163168208427 0 0 0
1841 1 -6.443293705450185 -12.348872442695397 -10.326393601981405 0 0 0
1834 1 -8.084602152775236 -13.12989363901794 -12.771949194879813 0 0 0
1788 1 -4.131302539559755 -11.309839097204264 -10.579026157789084 0 0 0
1790 1 -6.22975743836401 -10.010614670604102 -9.767566526671068 0 0 0
1832 1 -5.7101392373882085 -12.194344803413419 -12.520503115234984 0 0 0
1789 1 -3.87837016318403 -8.972263059186346 -9.562340003725485 0 0 0
1835 1 -7.796057841671421 -10.788376032672884 -11.952910396063835 0 0 0
1441 1 -5.571506237532466 -9.846616264644659 -12.662481707400408 0 1 0
569 1 -7.8687236708034884 -8.425799686430306 -11.278625124430768 0 0 1
1774 1 -3.2900050442856923 -11.453901930849067 -13.007272008796734 0 0 0
1823 1 -3.330567120932315 -9.339120308095646 -12.059176195154471 0 0 0
1799 1 -4.7528630694990674 -13.738414582686385 -9.093141419577291 0 0 0
1786 1 -4.143222417689865 -13.572337472145444 -11.330244513423706 0 0 0
776 1 -3.7073163685860315 -13.758496094918149 -13.61348421069862 0 0 1
423 1 -7.800156233325512 -8.768434802613562 -14.062051614597152 0 0 1
1787 1 -1.6444144075421754 -10.542190301941709 -11.007509346569172 0 0 0
1681 1 0.6893023919782948 -9.60300034810699 -10.602747034752634 0 0 0
1785 1 -1.8964394521397914 -12.759819084198634 -11.253275455964696 0 0 0
1772 1 -1.2077926634310536 -12.23411817902793 -13.409816515879989 0 0 0
1698 1 -0.22031590080192842 -11.716663350458056 -9.07064444139622 0 0 0
1771 1 0.5388939845680909 -10.06741758144409 -12.951776662520546 0 0 0
1439 1 0.5057055251309972 -11.871636666171932 -11.329803200638636 0 1 0
1798 1 -2.3897643712092727 -12.69642017118682 -8.935863918349668 0 0 0
1697 1 2.001046807977424 -10.992919046319988 -9.11984249452922 0 0 0
1784 1 1.8629667674957524 -12.48829029160133 -13.673356083310924 0 0 0
1696 1 2.074797220843738 -13.324007157029067 -10.003344893633717 0 0 0
539 1 -1.769426345493324 -9.642091726943363 -13.788101535567222 0 0 1
1683 1 -1.6224087295686793 -8.215767277938907 -9.535011841864753 0 0 0
1659 1 2.6530730867816317 -8.83693406969163 -12.935096304886807 0 0 0
1679 1 2.7217195482040424 -11.141020551968973 -11.795981587158503 0 0 0
1544 1 6.748763551449311 -11.443863219137548 -10.119882539332417 0 0 0
1546 1 4.467379224172561 -10.248585530761884 -9.114520407413572 0 0 0
1677 1 4.276350046756303 -12.852454402496173 -12.859259702239163 0 0 0
1678 1 4.894867327523091 -10.169528203585813 -11.372104827641204 0 0 0
1695 1 4.3496152421237255 -12.345192255926392 -10.161713913798755 0 0 0
1545 1 6.916410896092568 -9.261627870208436 -9.232063138756615 0 0 0
1657 1 6.515739558941341 -11.37064188394274 -12.590591563141942 0 0 0
827 1 4.212266769603527 -10.58466638284948 -13.759414191970459 0 0 1
1680 1 2.9152828099696464 -8.768025906822716 -10.513071689202878 0 0 0
1521 1 7.66711050434742 -9.338547974929455 -11.592337351937386 0 0 0
1658 1 6.020549344618782 -8.540458791758939 -13.311296259440443 0 0 0
1116 1 5.855173774674476 -13.700004791495866 -8.787144284614236 0 1 0
1676 1 6.543024143960196 -13.630021972844713 -11.236750850074198 0 0 0
1562 1 8.094159695679174 -12.865566770388897 -8.717361630642726 0 0 0
890 1 8.27898160189542 -13.08805069884853 -13.491815375399701 0 0 1
1363 1 11.608691095309435 -9.749482650183836 -10.322753654765227 0 0 0
1518 1 12.224428828795126 -9.817418533300039 -12.73436092744856 0 0 0
1542 1 8.815702244544504 -12.884575182929986 -11.129897340856573 0 0 0
1543 1 9.175102019600505 -10.674499598714858 -10.190833568910287 0 0 0
1656 1 9.883696652669997 -11.082365597341607 -12.73204969942009 0 0 0
136 1 11.524814839723504 -12.015609976525738 -11.217402314156283 0 1 1
1519 1 12.748086331643147 -13.357016330016195 -9.661597882756332 0 0 0
1386 1 10.553318895245514 -12.074446011351077 -8.957241853954681 0 0 0
1385 1 12.911493211891138 -11.211230394139719 -8.893876802049284 0 0 0
1675 1 13.461348724160722 -13.314018620204532 -12.004157315439524 0 0 0
1365 1 9.248124657265297 -8.454664133619936 -9.21479783225025 0 0 0
1520 1 10.008305507443634 -8.516512439983405 -11.717975425256002 0 0 0
804 1 10.279929056369852 -8.754855564403428 13.996645358180308 0 0 0
1258 1 10.793142897628488 13.574362436258967 -12.34039238172117 0 0 0
1361 1 13.79361651076006 -11.06652908802721 -11.222612585939606 0 0 0
1517 1 -14.13650338240048 -11.523867011853145 -13.748269228018854 1 0 0
1362 1 13.84620034779358 -8.961528561342607 -10.173426573379908 0 0 0
1851 1 -11.367135868815657 -8.217869624698059 -12.585432852165843 0 0 0
1838 1 -12.151299455681274 -7.9574871038121 -10.17416258620462 0 0 0
1836 1 -9.925531494727215 -7.075739930066643 -10.276270802890531 0 0 0
1780 1 -9.944106061288704 -4.744605354822351 -9.374797556529513 0 0 0
1827 1 -11.283643942282243 -5.848127114226148 -11.733395016571814 0 0 0
1837 1 -9.04013977002715 -4.971263503685794 -11.53360657485271 0 0 0
1839 1 -12.182919457726682 -5.710576317773182 -9.364228613693552 0 0 0
1828 1 -11.389192066265714 -3.3884325958002 -10.77422995707251 0 0 0
1818 1 -12.642017559341435 -4.418415644672249 -13.064841601870745 0 0 0
1853 1 -13.592886697073828 -6.50087725629292 -11.750633671925632 0 0 0
1829 1 -13.532767891886177 -4.328982592088799 -10.660585099290707 0 0 0
1826 1 -10.220304284919198 -3.5390697743534947 -12.733804985285449 0 0 0
1825 1 -9.36476245201564 -7.046914972693184 -12.717620184434127 0 0 0
1764 1 -8.816963179874932 -2.528274357821843 -10.94389571590842 0 0 0
1833 1 -5.4853751036285185 -7.873699049813555 -11.277575645189067 0 0 0
1776 1 -4.829655110117066 -5.712513013068444 -12.30419268717544 0 0 0
1778 1 -7.557207222168131 -6.2091802087537165 -10.209395590253067 0 0 0
1779 1 -7.4545787478296335 -3.9067952299687754 -9.384250584507342 0 0 0
1762 1 -6.684954335793867 -4.164644300028071 -11.603566132039411 0 0 0
1777 1 -5.333482027732877 -5.413903507099517 -10.127540282796982 0 0 0
1824 1 -7.067575750765849 -6.407982460403447 -12.523585773302853 0 0 0
1667 1 -5.084712412371383 -3.121116636456211 -9.498815291974841 0 0 0
1760 1 -5.722808642969239 -3.506630416627946 -13.56837738359839 0 0 0
1759 1 -3.6154369084693005 -7.481540486220227 -13.215052289893226 0 0 0
1817 1 -8.071775091916223 -4.579250687148889 -13.793315660250286 0 0 0
1791 1 -6.238683367821148 -7.601735000903572 -8.837018471815826 0 0 0
1685 1 -3.813140442007864 -6.797099672645521 -8.663902266831402 0 0 0
1645 1 -3.94745417123449 -3.3263838646303086 -11.910909459249778 0 0 0
1775 1 -3.0541778377984077 -6.991926932413741 -10.969667895215121 0 0 0
1773 1 -1.1667874324543899 -8.103174957969554 -12.037309187586404 0 0 0
1665 1 -2.870553816800502 -4.617641775502728 -10.2104760348649 0 0 0
1646 1 -2.067576554645804 -5.584291370052146 -12.670176990723252 0 0 0
1663 1 -0.6765398440825319 -5.984543568846757 -10.855755234096574 0 0 0
1661 1 1.1293948047600093 -7.396414157560933 -11.842029322208562 0 0 0
1662 1 1.7633868873822554 -5.132690529866174 -11.280294608609138 0 0 0
1682 1 0.7497569550799756 -7.207545870227367 -9.46648753588753 0 0 0
1664 1 -0.47802533867223396 -3.687052143537997 -10.13187981339674 0 0 0
1642 1 0.20047595211772418 -3.8608653304176688 -12.584514183513923 0 0 0
1527 1 0.8464627291046938 -5.011112720366576 -8.639726211381355 0 0 0
1684 1 -1.537457458883038 -5.906877661995301 -8.648391624069738 0 0 0
1503 1 1.8311912162308772 -2.8588649664765704 -10.155244257952598 0 0 0
1640 1 2.120197352025123 -6.138556700095989 -13.675480919708434 0 0 0
1627 1 -1.9660625780270848 -3.4181794658500966 -13.88461605737877 0 0 0
1757 1 0.3207765823942079 -7.824767725868335 -13.830152588481006 0 0 0
1523 1 5.405197449634844 -7.968071477161467 -10.552300099214984 0 0 0
1525 1 3.097694941025221 -6.5298589423840605 -9.660076558295104 0 0 0
1499 1 6.199968437704452 -5.886528053163482 -12.074865284713711 0 0 0
1501 1 3.8962560841351497 -4.243487325622764 -11.043726836139026 0 0 0
1524 1 5.330817941707256 -5.708611594500018 -9.656545377769756 0 0 0
1639 1 4.300028748875786 -4.304392261307898 -13.349522717236527 0 0 0
1660 1 4.007569907558818 -6.7555915962617785 -12.286159608223059 0 0 0
1500 1 6.223577815412128 -3.5686205618308566 -11.323379219291407 0 0 0
1526 1 3.2020082704164494 -4.25613437076205 -8.783052617416669 0 0 0
1522 1 7.688838265914789 -7.005103518306858 -10.595432318420094 0 0 0
1343 1 5.594898435036022 -3.380516021415687 -8.970440569985035 0 0 0
1341 1 7.8154254347165555 -4.804512495755212 -9.626037787095873 0 0 0
1474 1 7.155667529891211 -4.419989923865204 -13.543004904070093 0 0 0
1497 1 8.47454179168081 -6.8762475723757275 -13.08961906692399 0 0 0
1498 1 8.633318674032292 -4.8242016920987645 -11.751414529539245 0 0 0
1337 1 12.519551828451878 -7.577098239217985 -11.6499035121336 0 0 0
1315 1 10.945328550860573 -3.935833414906746 -12.22263277925703 0 0 0
1338 1 12.546759579897127 -5.288555068877731 -10.89632290619692 0 0 0
1339 1 10.083209427809102 -6.229723846642493 -10.65730592329487 0 0 0
1496 1 10.909852363883498 -6.166698667439677 -12.858663751148528 0 0 0
1364 1 11.586280436830847 -7.431166827825135 -9.377439753512707 0 0 0
1340 1 10.031757656653497 -3.9319653171413336 -9.96738776640036 0 0 0
1314 1 13.036895346589777 -2.9051051300678523 -12.29979146042509 0 0 0
1165 1 12.402419247572272 -2.962207403117228 -9.949386381344299 0 0 0
1313 1 13.556968327960426 -5.111112026503324 -13.319779160685917 0 0 0
723 1 9.351903331693094 -4.324195174524714 -13.883422997239112 0 0 1
1495 1 12.723729758421833 -7.320328254814781 -14.016723637015946 0 0 0
1188 1 11.629334703939268 -5.12872522855926 -8.518812413400315 0 0 0
1186 1 13.879672197940177 -6.601345018319114 -9.352904493489753 0 0 0
1766 1 -11.253488954297014 -1.105219367723624 -10.088390897225281 0 0 0
1819 1 -10.451902841037427 -1.1286478904950954 -12.815647198611137 0 0 0
1821 1 -12.691476295435809 0.24451948700391668 -11.655174298333286 0 0 0
1830 1 -13.740565769831997 -2.053648678392813 -10.096195608322475 0 0 0
1752 1 -10.45424344793986 1.0789105420991376 -11.622372577003173 0 0 0
1820 1 -12.856070764538842 -2.0789393284418143 -12.301119446874514 0 0 0
1768 1 -13.625514834134728 0.08008635945801856 -9.197215008183312 0 0 0
1767 1 -11.271358895352416 1.003919515070237 -9.011723860942485 0 0 0
1765 1 -8.847412096566796 -0.36189996878000663 -9.958251537997931 0 0 0
1755 1 -12.718195452171804 2.4063556958234056 -10.718915433048753 0 0 0
1650 1 -8.926041655489424 1.8541840152376494 -8.933586961592837 0 0 0
1816 1 -11.986641444170495 2.7849490819133624 -13.104841382168816 0 0 0
1753 1 -12.52480883863992 -0.617491515691226 13.806002045928059 0 0 -1
1751 1 -7.792359858374043 -2.3927810182747145 -13.04606420799073 0 0 0
1761 1 -4.24356951295235 -1.181038420866786 -10.7586915206811 0 0 0
1743 1 -8.137991736379405 -0.07563668172444693 -12.257577493138097 0 0 0
1763 1 -6.415641546290809 -1.8032716970827156 -11.03801178890956 0 0 0
1648 1 -6.518732949750879 0.4741353704855875 -9.929650951075956 0 0 0
1750 1 -5.589280378706022 0.7627125328950459 -12.165058487284721 0 0 0
1647 1 -4.312180513285323 1.1409474116962883 -9.799832251585393 0 0 0
1631 1 -7.932533534081172 2.0677531448196262 -11.255477694534324 0 0 0
1630 1 -3.211546573156424 2.371397843261077 -11.709808091092789 0 0 0
1748 1 -3.6951124758604195 -1.2306698713469455 -13.076933609882484 0 0 0
1649 1 -6.678450735680101 2.7384274628323393 -8.94122681766276 0 0 0
1614 1 -3.722291543964804 0.9978861653418676 -13.956852047234506 0 0 0
1749 1 -6.1532989777379115 -1.0367191425416138 -13.912138048387792 0 0 0
116 1 -7.946826697214038 1.8327628003927199 -13.700349466066756 0 0 1
176 1 -5.596208040819802 2.8197509388431126 -13.118666987740195 0 0 1
1666 1 -2.6692910162246033 -2.3584876983637617 -9.252611860040783 0 0 0
1644 1 -1.8235304860374253 -2.2715719366285736 -11.65346378749648 0 0 0
1480 1 -2.1406058545321205 0.09326787698574357 -10.733598741469237 0 0 0
1643 1 0.46947021974087555 -1.2867407221057476 -11.599761786061126 0 0 0
1505 1 -0.5208003309924241 -1.2832141458743749 -9.265718284901954 0 0 0
1482 1 -1.8120763888976406 2.34186935960747 -9.901014132526647 0 0 0
1504 1 1.7904515495771207 -0.5027768039734006 -9.55092657654053 0 0 0
1628 1 -1.3560833407951733 0.3039721513118874 -12.934287816694729 0 0 0
1479 1 0.2774577255017565 0.946638799473309 -10.795823595270917 0 0 0
1626 1 0.5242138557345868 2.603650481467115 -12.611729327594652 0 0 0
1624 1 2.1904847235240297 0.10947779396376589 -13.13275081481832 0 0 0
1478 1 0.07962146000113357 -1.6264118963377232 -13.81933756302999 0 0 0
1629 1 -1.6023834347929746 2.6887808133550184 -13.617159108259006 0 0 0
1506 1 -0.46158640499323944 0.8930146531220657 -8.329674790108522 0 0 0
1641 1 2.509232158218108 -2.49401878337431 -12.474315033258303 0 0 0
1323 1 1.7331474971215854 1.8137136451830393 -8.665816572572584 0 0 0
1477 1 2.6296414866877953 1.7761279145514557 -11.280801179620223 0 0 0
1507 1 -2.7495162412626133 -0.0638752048457416 -8.366833705374589 0 0 0
507 1 6.0812852450250645 -1.954553618188255 -13.118423170606198 0 0 1
1342 1 7.914799264143767 -2.4503128010478257 -9.258006515966848 0 0 0
1476 1 4.4751535790855925 -0.16629999273026996 -12.302490380926832 0 0 0
1502 1 4.199131831851666 -2.004618804069855 -10.499585322790477 0 0 0
1319 1 6.499445272679125 -1.0895692705259545 -10.805429546482692 0 0 0
1457 1 4.395103177306488 2.188369809252249 -13.333302010043559 0 0 0
1296 1 6.723805814860125 1.0302359468088316 -12.048081496882446 0 0 0
1320 1 6.449234911437969 1.2531828503500169 -9.601821229192403 0 0 0
1321 1 4.062102973939091 0.29092464266550877 -9.58417787795911 0 0 0
1298 1 4.758081938095167 2.5825500876905902 -10.928311874361565 0 0 0
1322 1 4.063897384972357 2.5478378398289845 -8.50112730387595 0 0 0
1454 1 8.3960304290379 1.776583238795391 -14.061567498934496 0 0 0
1317 1 8.49949312001052 -2.5900396503820655 -11.781231062661059 0 0 0
1475 1 8.502384873426958 -0.4285855314103131 -12.980706184055418 0 0 0
1316 1 10.880395486566275 -1.5198379725150097 -11.508233290192994 0 0 0
1318 1 8.690084613001087 -0.01839116752016956 -10.643461467307679 0 0 0
1147 1 10.955135737056974 0.7414037832993099 -10.391970367200408 0 0 0
1294 1 10.81605830040714 0.5918159935934408 -12.795483053181664 0 0 0
1167 1 10.196210261880488 -1.4391684645216891 -9.128157983715834 0 0 0
1149 1 8.708595815295858 2.178972290637285 -9.437163311136587 0 0 0
712 1 12.380552330846015 -0.7109135231072585 -13.725620541781685 0 0 1
1166 1 12.506947597213966 -0.5724352861101121 -9.085779418619815 0 0 0
1295 1 9.291074303769996 2.189342794464105 -11.877307800523278 0 0 0
1145 1 13.09130310513006 -0.635018154899786 -11.434151466933013 0 0 0
1146 1 13.351125749479156 1.5966178669043085 -10.680335401621196 0 0 0
1473 1 10.351037838158682 -2.0403712841248343 -13.766507955276333 0 0 0
1130 1 11.874465303312022 2.9203300504707723 -12.212368605406695 0 0 0
1148 1 10.968254787738026 2.963892161742452 -9.593682458970276 0 0 0
1275 1 13.90707866143945 1.2872344226096057 -13.19977507333899 0 0 0
1744 1 -9.559349323521833 3.3491835415709605 -12.688135123710383 0 0 0
1754 1 -10.302030025493014 3.263163866251938 -10.36488696088153 0 0 0
1635 1 -10.441958533011814 5.670434088438649 -9.653462363863166 0 0 0
1745 1 -9.383866093695165 5.6604858026890295 -11.91229646641235 0 0 0
1746 1 -11.848554208987533 4.659846487282975 -11.616070847670638 0 0 0
1756 1 -12.7490823556278 4.628325197634011 -9.462326352923032 0 0 0
1737 1 -11.92544397273851 7.104386217833143 -11.57020923871657 0 0 0
1814 1 -13.182860136531533 5.621386866448754 -13.454129438575409 0 0 0
1607 1 -9.988356879891558 7.659644393201878 -13.663463634954764 0 0 0
17 1 -10.953930088273637 5.404254139665644 -13.706054924892062 0 0 1
1620 1 -9.58759182730483 7.954726894824285 -11.15548617548269 0 0 0
1747 1 -12.703812149403632 7.006364807300793 -9.001196557696488 0 0 0
1636 1 -10.313010162220456 7.803500205382425 -8.86979663856439 0 0 0
1119 1 -14.162148171322755 5.970285332237578 -11.204253660955029 1 0 0
1632 1 -5.487976526581248 2.944691022361207 -10.947304412223879 0 0 0
1633 1 -7.903908486291367 4.2590220711806825 -10.321527438624567 0 0 0
1634 1 -8.087134943175966 6.5788582604474914 -9.700417025481073 0 0 0
1618 1 -7.3616031794048515 4.183239293834523 -12.68039382207788 0 0 0
1617 1 -5.731659712179475 5.219118476045017 -10.688445481603786 0 0 0
1465 1 -5.814439387144086 7.551127081811364 -9.6996800206026 0 0 0
1736 1 -7.348627141727787 6.655386782338686 -12.398857986555726 0 0 0
1484 1 -4.115093713270319 3.5345047558084897 -9.145553363027952 0 0 0
1615 1 -3.571009799815016 4.773532218968866 -12.850341116086415 0 0 0
1605 1 -3.2573631601433597 7.187135416896057 -13.724134778178449 0 0 0
1606 1 -4.9319973014064935 7.255092377057158 -12.027819118518268 0 0 0
1616 1 -5.647152536649861 5.331657944028143 -13.690268244341219 0 0 0
1464 1 -3.542330077188156 8.265619568844228 -9.578276072148496 0 0 0
1463 1 -3.3027606861435856 6.0285399572296985 -10.510689746392178 0 0 0
1447 1 -2.687847641281312 8.145948686213737 -11.721842589455273 0 0 0
1481 1 0.31299545674969664 3.204409542116421 -10.125437075249334 0 0 0
1461 1 -1.3278041138792087 4.149684759700472 -11.742675803940113 0 0 0
1460 1 1.0704745253942658 5.210304237577661 -11.278969479021711 0 0 0
1462 1 -0.9844348279514836 6.7068260086414515 -10.405003155548425 0 0 0
1445 1 -1.151226460381201 6.437288299165209 -12.637924020606745 0 0 0
1443 1 0.5040007751782287 4.743149432277848 -13.593781949143233 0 0 0
1284 1 1.1993934797470391 7.546405250439994 -10.103126125277862 0 0 0
1444 1 1.3531534916697971 7.304862402998102 -12.391377305127781 0 0 0
1483 1 -1.8728547652449041 4.500026022482976 -9.137234761487466 0 0 0
1302 1 0.4114278567979195 5.352599718058004 -8.781824121001343 0 0 0
1459 1 2.8835037328142583 4.059844526509432 -12.510405966663242 0 0 0
1442 1 2.9178596273953232 6.1615589064290734 -13.520710246012385 0 0 0
1300 1 2.6724148331274193 4.040709926151971 -9.968134443798583 0 0 0
1301 1 2.647434379161851 6.227438487393142 -8.872362051027771 0 0 0
1456 1 6.6752564753099755 3.2720362106013017 -12.93533301422464 0 0 0
1280 1 5.52352748183522 7.162679963135796 -11.492897597412522 0 0 0
1282 1 3.24273820835532 6.301421460512829 -11.188109798383772 0 0 0
1299 1 4.908231627937358 4.924394903355315 -9.786139424030967 0 0 0
1458 1 5.234745547232553 4.9017621065110095 -12.08624592495147 0 0 0
1134 1 7.151330168425247 5.734347939762108 -10.137665950329374 0 0 0
1297 1 7.1152442739628015 3.4565451159876464 -10.77018022551092 0 0 0
1135 1 7.169383091431595 7.972292719157762 -9.088575198115972 0 0 0
1136 1 4.8660970341248415 7.250120957398627 -8.928504203267607 0 0 0
1266 1 6.096696093594868 6.532578065118885 -13.835712964878542 0 0 0
1268 1 4.145090025202013 8.489077470988716 -12.907037051405274 0 0 0
1281 1 7.830110815116182 7.674708747115181 -11.441204056443274 0 0 0
1278 1 7.897247360668018 5.581465502766774 -12.74817284310992 0 0 0
1265 1 8.57407849799085 8.02968457593047 -13.628244012445126 0 0 0
1131 1 11.860394709990597 5.044415951099884 -10.922689131742597 0 0 0
1132 1 9.613803378063494 4.332474871125887 -11.228887481270299 0 0 0
1133 1 9.47195990407582 6.534262827827932 -10.074016139515964 0 0 0
1013 1 11.786381645120425 7.381564905752226 -10.226159015766108 0 0 0
1263 1 12.498447919797503 5.636528604559851 -13.21079982991943 0 0 0
1120 1 10.364668011570966 6.4015846596638415 -12.275727651644415 0 0 0
1277 1 10.20270317001755 3.9178212220878184 -13.663865854350032 0 0 0
1021 1 13.29075004892406 3.76182315920798 -9.462468878151439 0 0 0
1022 1 13.415137864701613 6.083145112651218 -8.797191224951636 0 0 0
1023 1 11.005155862283587 5.206376462297362 -8.650457092259561 0 0 0
1150 1 8.663409817574706 4.395073345946875 -8.579015220593874 0 0 0
1113 1 14.101287043464982 7.812554218793389 -13.106149274566478 0 0 0
1118 1 14.134635071597412 3.6987714798440496 -11.830977646724097 0 0 0
1008 1 14.179980272572841 8.30103862618554 -10.400610088151883 0 0 0
1859 1 -10.910256621827543 13.637015389115382 -10.583423926167857 0 -1 0
1855 1 -10.208060417984685 13.300376615343707 -13.174351758192987 0 -1 0
1739 1 -11.962543414400745 9.112889653734909 -12.879011571871377 0 0 0
1738 1 -9.641064932714905 10.225192191358024 -12.489281822034126 0 0 0
1611 1 -11.752135057643635 11.527841658298266 -9.136679077429044 0 0 0
1622 1 -11.838188261517715 9.347118715413268 -10.344591385162431 0 0 0
1733 1 -11.332234223681438 11.551859859859062 -11.568408946889008 0 0 0
1621 1 -9.551329389039694 10.160517621565605 -9.950528522489039 0 0 0
1735 1 -13.34640522146274 12.921043288056401 -10.553619479018813 0 0 0
1453 1 -9.479773644973907 12.334375195084599 -9.117287757292887 0 0 0
1740 1 -13.601025049558853 10.477134796187281 -11.830662834413518 0 0 0
1 1 -13.694112231591657 12.714693275329045 -12.84900732547036 0 0 1
9 1 -11.912874693610043 11.450387076620062 -13.783032370549126 0 0 1
331 1 14.157276650162746 10.102532374063001 -14.034573701417006 0 0 1
1609 1 -8.718393936901709 12.232701461843758 -11.417088793534177 0 0 0
1010 1 14.1775739453862 10.52530781770365 -9.337931609942391 0 0 0
1467 1 -7.990528866674551 8.75866091902976 -8.736243342535897 0 0 0
6 1 -7.82623412335363 9.058078737168623 -13.406171884007 0 0 1
1619 1 -7.283031374427895 8.945193480580242 -11.127207806893429 0 0 0
1840 1 -6.319379511931107 13.154086831782001 -11.556942313730557 0 -1 0
1449 1 -4.825704972236661 9.536761364949433 -11.126129801259268 0 0 0
1450 1 -4.884632307236394 11.642092208811635 -10.157074807092087 0 0 0
1451 1 -7.112249179397926 10.973790225446711 -9.986026243437447 0 0 0
1452 1 -7.156989373900121 13.302763767895387 -9.10067347388696 0 0 0
1603 1 -6.369817881458484 10.856646090899746 -12.755845431580731 0 0 0
1854 1 -4.108908901970667 11.909733056301546 -12.37995620944601 0 -1 0
30 1 -4.150299152302754 9.554435122413436 -13.49331583273982 0 0 1
1466 1 -5.67923513427073 9.677910132391633 -8.640334216253478 0 0 0
1288 1 -3.376348374361461 10.538455500369347 -8.54642135810793 0 0 0
673 1 -6.126972014991987 13.52138460293998 -14.076961590420416 0 -1 1
1438 1 0.612494674884978 13.598652047774545 -12.002985150306596 0 0 0
1273 1 -0.3670218081704011 13.496306810131054 -9.718574637166743 0 0 0
1436 1 -1.6824378943252007 9.098763155638492 -13.56345038912957 0 0 0
1446 1 -0.15655082096516004 9.032349523915522 -11.888565622335651 0 0 0
1274 1 -2.6277913453600217 12.657787730598676 -9.847661391144655 0 0 0
1440 1 -1.6545343974363238 12.952272591938526 -12.358440412997856 0 0 0
1286 1 -1.1361248775063775 8.965675446670256 -9.479051719020841 0 0 0
1448 1 -2.4722999219985518 10.415079995722833 -11.251370691061355 0 0 0
1272 1 -0.12330193423258429 11.198925430468138 -10.694149568358036 0 0 0
1437 1 0.4226845076482899 11.146834892808352 -13.238548484854618 0 0 0
1285 1 1.1789952262513381 9.77147557566043 -9.333200659694054 0 0 0
1270 1 2.0817481054224665 9.769327269396102 -11.895451228817214 0 0 0
1261 1 2.05246544864967 12.064169330353012 -10.784406151956723 0 0 0
1128 1 1.2348565833301048 12.13478913009253 -8.490733429935418 0 0 0
1287 1 -1.023797835848475 11.34968230769494 -8.509198352891207 0 0 0
1283 1 3.372739325307741 8.388029159094105 -10.256600591018993 0 0 0
139 1 2.4587884001284905 12.53474154864062 -13.065604467453523 0 0 1
1271 1 3.4220839432682624 10.730382988380546 -9.455197006379636 0 0 0
1124 1 5.746259663389072 9.391265941244066 -10.335057317451108 0 0 0
1260 1 6.403398832283177 11.60851929978672 -11.904537298676807 0 0 0
1269 1 4.2098946176327345 10.608273394586083 -11.627499734696213 0 0 0
1117 1 4.286768957886686 12.944674136717369 -11.06197540595494 0 0 0
1125 1 5.824880677836212 11.671846291907864 -9.616405822141143 0 0 0
1267 1 6.4851041374711045 9.290740438794726 -12.68797903997606 0 0 0
138 1 6.109037278620896 13.104073565000357 -13.594696484056943 0 0 1
1259 1 4.293847485451284 10.808402162122805 -13.980409901486107 0 0 0
1127 1 3.592390984267695 13.088235883529903 -8.624420377287029 0 0 0
1012 1 8.082456052005817 12.570999363026791 -9.893310488889199 0 0 0
1122 1 8.136775723457468 10.264813955795555 -10.812900313556836 0 0 0
1279 1 10.19936245564801 8.594500751526096 -11.510226990472905 0 0 0
1115 1 10.384690934466771 13.464758836599282 -9.94307254165102 0 0 0
1123 1 8.665552917335585 12.412879143390095 -12.369681158015382 0 0 0
1121 1 10.499965981346573 11.12468422035583 -10.872761635957591 0 0 0
1541 1 12.696672426789238 12.090623004217866 -10.70723566048805 0 -1 0
1114 1 9.984293906073002 10.170537228844696 -13.245362729402054 0 0 0
1006 1 12.440755780883148 9.55122319365651 -11.798232471090277 0 0 0
1109 1 12.363081513875287 11.674332802336762 -13.106486168174264 0 0 0
1014 1 11.898107656260606 9.734794300769375 -9.391434217484122 0 0 0
1015 1 9.653592180144877 8.837271435312983 -9.12352993522172 0 0 0
1848 1 -9.407634587871708 -12.941606270607297 -8.161821833269439 0 0 0
1803 1 -9.27264739167651 -10.685189106515766 -7.363957874740335 0 0 0
1849 1 -11.642121770171302 -11.669522334371253 -7.418515120469776 0 0 0
1805 1 -11.734759497133894 -9.368745146245349 -6.440661489703614 0 0 0
1809 1 -10.325518340335849 -13.043902631105798 -5.8606517967221485 0 0 0
1810 1 -10.171040769396779 -10.774605208263392 -4.987624714027447 0 0 0
1811 1 -12.35751487929593 -11.485736135180085 -4.955552621895972 0 0 0
1812 1 -12.499549857157971 -9.24596229018027 -4.160385303703 0 0 0
1813 1 -11.080732641525323 -12.976478495096366 -3.553225604356916 0 0 0
1718 1 -10.158837311471178 -8.483516105331056 -4.169256426389728 0 0 0
1804 1 -9.349580876833866 -8.508311269124171 -6.446101730329387 0 0 0
1725 1 -8.853491671830861 -12.097300349776752 -3.4716476715459788 0 0 0
1225 1 -14.049045888089623 -10.250571219513281 -6.38596455842396 1 0 0
1860 1 -14.08179869888779 -12.58632663059579 -7.351772807134447 0 0 0
1471 1 -12.615131898985313 13.742468139271852 -5.833249997969844 0 0 0
1623 1 -11.943882921451351 13.788376174390157 -8.240840170802791 0 0 0
1800 1 -4.736563720701962 -11.22598624794544 -8.191003837805136 0 0 0
1801 1 -7.157335254185486 -12.264446662995365 -8.105495192365746 0 0 0
1802 1 -7.0473789962366995 -9.922939085260724 -7.328710065991621 0 0 0
1716 1 -7.931719657840888 -9.776871112561803 -5.01481168810419 0 0 0
1808 1 -7.905607891018594 -12.061343257507112 -5.765460440401576 0 0 0
1714 1 -5.518501355521824 -11.329674821048688 -5.953469242507113 0 0 0
1715 1 -5.588165716390959 -8.924056350130298 -4.966327797609722 0 0 0
1722 1 -4.149598150799154 -12.692538697663942 -4.411485811242095 0 0 0
1702 1 -4.80804031021875 -9.019798239825395 -7.230601991389967 0 0 0
1585 1 -4.166295124640921 -10.400737318371704 -3.628263413392874 0 0 0
1712 1 -3.3881049401846237 -12.575468015106532 -6.802034350415706 0 0 0
1724 1 -6.519914071605551 -11.271021007660021 -3.6460162317048166 0 0 0
1713 1 -3.294779162840893 -10.398319778163827 -5.809432345458527 0 0 0
1723 1 -6.398594638591684 -13.573045184691019 -4.31734001927034 0 0 0
1807 1 -5.64675958674022 -13.575920908177634 -6.650549070462916 0 0 0
1700 1 -2.450594291665606 -10.34949530204906 -8.330602229877266 0 0 0
1548 1 2.275787783258931 -8.631119375466877 -8.15875814815087 0 0 0
1699 1 -0.001434407882186406 -9.585562857557347 -8.190773258277126 0 0 0
1710 1 1.1843911319270202 -13.204661398447769 -7.713117392666005 0 0 0
1568 1 -0.9095994088133388 -9.529071422817617 -5.748977582408617 0 0 0
1583 1 -1.8765275227423555 -11.723834962557547 -4.473503666291123 0 0 0
1584 1 -1.7956504383266836 -9.556187332579672 -3.346231762188941 0 0 0
1711 1 -0.9719234130760839 -11.786017686782875 -6.72799554166539 0 0 0
1566 1 1.3300812946565461 -10.927716036490542 -6.680733695187386 0 0 0
1581 1 0.4779203737372413 -13.231297533667858 -5.214153159998967 0 0 0
1582 1 0.5609819402831029 -10.906144793225069 -4.09988723460868 0 0 0
1567 1 1.3832220999380418 -8.637476482385575 -5.7589439023764175 0 0 0
1413 1 0.6043573175042916 -8.578964095264539 -3.483633718282002 0 0 0
1701 1 -2.284922634647156 -8.207796322920107 -7.244856195491135 0 0 0
1593 1 -0.40228146487221395 -13.140867712345981 -2.948060814748146 0 0 0
1580 1 2.7709252868047294 -12.298591408506873 -5.225825429390689 0 0 0
1411 1 2.8001181103819945 -10.053354125947667 -4.305366333303079 0 0 0
1563 1 5.932754886335019 -11.531268961513293 -7.64457627397415 0 0 0
1564 1 3.5631860430386766 -12.348309262598441 -7.618046893140901 0 0 0
1390 1 6.123583167954713 -9.29706870945257 -6.985965406913236 0 0 0
1407 1 7.4046689457107995 -12.961571088043414 -6.299464878457574 0 0 0
1408 1 7.42753563323911 -10.696598937174326 -5.505755871632486 0 0 0
1409 1 5.1840509009218145 -11.45266401812296 -5.373827640773033 0 0 0
1410 1 5.113926036935531 -9.15250115465944 -4.40722017821418 0 0 0
1422 1 6.53905318591173 -12.787575751270962 -4.0380139498259595 0 0 0
1565 1 3.6746700096977314 -10.035668383449435 -6.727109009269838 0 0 0
1245 1 6.60255759176086 -10.51720528091655 -2.9587194310970357 0 0 0