LAMMPS data file via write_data, version 23 Jun 2022, timestep = 0

1871 atoms
3 atom types

-14.431375890162697 14.431375890162697 xlo xhi
-14.472424086464562 14.472424086464562 ylo yhi
-13.161112075302336 13.161112075302336 zlo zhi

Masses

1 55.847
2 1.008
3 1.008

Atoms # atomic

175 1 -13.3684421963434 -12.826377345389778 -11.530801220663996 0 0 0
174 1 -11.712731490761481 -14.03663926709421 -12.753812714493167 0 0 0
667 1 -12.01743707579173 -14.283384505323111 -10.173785031386549 0 1 0
173 1 -10.462825368669161 -12.62517570832712 -11.209811417318232 0 0 0
172 1 -8.851097832562852 -14.136187257245615 -12.540453691860229 0 0 0
171 1 -7.501381991463555 -12.663820949409422 -10.748075392804704 0 0 0
170 1 -6.010598590947035 -14.247815842310038 -12.21198622136021 0 0 0
169 1 -4.871146470120495 -12.810500327483698 -10.484263756184935 0 0 0
168 1 -3.14038250093839 -14.102723915496439 -11.735557922793964 0 0 0
167 1 -2.031487054431734 -12.905055678448521 -10.120347461543348 0 0 0
195 1 -1.6242833114771411 -12.596430963782376 -12.822409344491568 0 0 0
1086 1 -0.37069580864219276 -14.328628483052903 -11.448976484359708 0 0 0
165 1 -13.469816494946063 -9.997760468714025 -11.0956366010378 0 0 0
164 1 -11.862625123212794 -11.256270575858665 -12.468812070894586 0 0 0
154 1 -10.546513556070437 -9.837120065232279 -10.755083700408123 0 0 0
162 1 -8.924301924145642 -11.175799779630264 -12.263667638519689 0 0 0
160 1 -6.079742341903922 -11.271187896436468 -11.880742105408896 0 0 0
161 1 -7.662038421924806 -9.941963148247687 -10.487455077080423 0 0 0
158 1 -3.3356557305386616 -11.39154413331704 -11.581771055964712 0 0 0
159 1 -4.933413599921828 -10.041020456180433 -10.140377287062888 0 0 0
193 1 -4.452670520909406 -9.778569494790904 -12.892066040487608 0 0 0
1076 1 -0.29352275773653425 -11.471513819632358 -11.185641501741298 0 0 0
192 1 -1.7950857756005494 -9.787140989657752 -12.56359483872145 0 0 0
190 1 -11.958130232363606 -8.417370044261972 -12.203103721829848 0 0 0
106 1 -13.537849573444259 -7.19761524276136 -10.761178474773132 0 0 0
152 1 -9.032614611919794 -8.448740198113686 -11.85538415785599 0 0 0
153 1 -10.661336672940328 -7.143322356911244 -10.362953787706129 0 0 0
150 1 -6.194744672454142 -8.467517092611356 -11.507800580386553 0 0 0
151 1 -7.668379949870462 -7.1802979169732435 -9.978340003970859 0 0 0
189 1 -7.56609458214197 -6.937873244204334 -12.912641755777187 0 0 0
148 1 -3.396112252285546 -8.51683261316876 -11.150699485422102 0 0 0
188 1 -4.708114811559936 -6.940765329262056 -12.347668489955874 0 0 0
1066 1 -0.47893968561202094 -8.64516748655626 -10.844718391765019 0 0 0
187 1 -1.6847545805123705 -7.047384530906268 -12.262290335413049 0 0 0
137 1 -0.3668743107006609 -5.891465448602952 -10.435578925121742 0 0 0
155 1 -11.96869403313087 -5.597958319262428 -11.918581048798886 0 0 0
95 1 -13.540185690929068 -4.419678151954958 -10.232033457726732 0 0 0
141 1 -9.231782565106815 -5.574868865781983 -11.550802327011931 0 0 0
144 1 -10.447298286923331 -3.9567787424779137 -12.984245545049863 0 0 0
93 1 -10.588716560908574 -4.384439493795217 -10.006001370220282 0 0 0
140 1 -6.337674843094781 -5.653978294978643 -11.204117820011167 0 0 0
185 1 -7.604939352153968 -4.086407091446107 -12.683071290439745 0 0 0
149 1 -3.1877406647996906 -5.76744690992472 -11.01327295089964 0 0 0
129 1 -4.679657283519381 -4.184533567460342 -12.220664054177474 0 0 0
139 1 -3.3341318498216204 -2.9859397307413875 -10.51751094514578 0 0 0
138 1 -1.859900450169782 -4.2360545717414055 -11.959156608473517 0 0 0
127 1 -0.4234419560094249 -2.979156852247888 -10.268910379253832 0 0 0
145 1 -11.960535934356695 -2.772953725769524 -11.34162402154864 0 0 0
84 1 -13.45882430824105 -1.4047706230422303 -10.15116044175674 0 0 0
136 1 -13.245292987082294 -1.2458372435998388 -13.062706432605422 0 0 0
143 1 -9.113119938554679 -2.7179351846738946 -11.28466543358201 0 0 0
133 1 -10.449620163169204 -1.2035900351393511 -12.644168412336978 0 0 0
132 1 -9.101204663227989 -0.07308603266485925 -10.948786930545113 0 0 0
184 1 -6.221066714241854 -2.7574822967747323 -10.937891898353213 0 0 0
131 1 -7.487139762470713 -1.2387312946107105 -12.486421273595631 0 0 0
130 1 -6.248047564358464 -0.22164819955198745 -10.73657974636739 0 0 0
179 1 -4.549691878448902 -1.4317363425307885 -12.094935166563346 0 0 0
128 1 -3.327980818318766 -0.18148297122627532 -10.269906465103295 0 0 0
178 1 -1.783533020444942 -1.373320730518671 -11.722613084625522 0 0 0
183 1 -0.24084092462002182 -2.64425639873828 -13.122475319016274 0 0 0
652 1 -0.5075437466403852 -0.1777352787618227 -10.007571503200705 0 0 0
124 1 -12.227178378929162 -14.466908423939016 -7.464949347828591 0 0 0
116 1 -13.616392148457663 -12.848487817568948 -8.757297693992445 0 0 0
66 1 -12.374455595893691 -11.762265498717708 -6.772179009759959 0 0 0
112 1 -10.68104081723946 -12.926227248680124 -8.400699521276316 0 0 0
571 1 -9.472787963582299 -14.459318056587007 -6.873764566473241 0 1 0
123 1 -9.130131539496688 -14.31782192536564 -9.806125496858716 0 0 0
122 1 -7.882824897707731 -13.116350421948733 -8.029375222906294 0 0 0
110 1 -6.2768668099977045 -11.608743678385993 -8.9328278434309 0 0 0
121 1 -6.248500154827484 -14.462253174039562 -9.346383465906175 0 0 0
119 1 -5.026249401423319 -13.36024206233143 -7.605994190881798 0 0 0
108 1 -3.650342253149054 -11.595794010581718 -8.601517964484461 0 0 0
117 1 -2.305020843937495 -13.399389456235966 -7.368927554841885 0 0 0
1026 1 -0.8094418217389467 -11.908635428852804 -8.289921866590888 0 0 0
114 1 -12.109635162401933 -11.30365566216963 -9.717930878038013 0 0 0
115 1 -13.77157406835315 -10.233622602611643 -8.33370843732731 0 0 0
103 1 -12.247886304417694 -8.779210857952872 -9.416145632695013 0 0 0
163 1 -9.219078543696032 -11.517767667464991 -9.399280359993805 0 0 0
113 1 -10.907379996318364 -10.120473405474396 -7.893660272163821 0 0 0
101 1 -9.270699045513096 -8.778421239928186 -9.018845784496426 0 0 0
64 1 -8.048193208163166 -10.271092001980854 -7.669764149543267 0 0 0
111 1 -6.417373413015913 -8.74506198748347 -8.606114048165654 0 0 0
109 1 -5.1118669843224165 -10.432128025473244 -7.196543396692261 0 0 0
97 1 -3.592817515442272 -8.869623018415083 -8.247779885503906 0 0 0
157 1 -2.076903635781358 -10.126109312528943 -9.837156032686853 0 0 0
107 1 -0.8529009948723587 -9.03484203123891 -7.938430115929017 0 0 0
59 1 -2.2789161054946963 -10.645393897085757 -6.916981164247642 0 0 0
57 1 -13.886579091879836 -7.552750627189327 -7.905994150770193 0 0 0
104 1 -12.257948894734827 -6.022308801182014 -8.96545303358473 0 0 0
55 1 -11.026245719770873 -7.6244130771982785 -7.5559673584823095 0 0 0
102 1 -9.323156861463485 -5.874753573382273 -8.702699367713132 0 0 0
53 1 -8.136834979824426 -7.495107630839971 -7.174760844028368 0 0 0
100 1 -6.49560239149148 -6.054525961736401 -8.335415495457244 0 0 0
99 1 -4.847716388438892 -7.271386307665436 -9.768179352188548 0 0 0
98 1 -3.6467397549710636 -6.113443152189783 -7.971425715120683 0 0 0
51 1 -5.372089861906435 -7.651223727511308 -6.818383204807954 0 0 0
147 1 -2.1815270478876165 -7.345747295102972 -9.545333613041564 0 0 0
96 1 -0.8746121096877957 -6.2466251969739055 -7.709579307031224 0 0 0
94 1 -12.312229529785206 -3.3014714955120983 -8.476714912566862 0 0 0
47 1 -14.108352926972858 -4.844498130530727 -7.615895007084511 0 0 0
44 1 -11.039191200049988 -4.672936949935586 -7.147469647452507 0 0 0
92 1 -9.399343042023604 -3.0188015536255186 -8.284138515442159 0 0 0
91 1 -7.827726521421461 -4.271588882192228 -9.764757748510117 0 0 0
89 1 -6.491930488645058 -3.1028727868532986 -7.9717620194419325 0 0 0
42 1 -8.20977710256377 -4.641778091247229 -6.86319980004006 0 0 0
88 1 -4.902918144123147 -4.439350739334163 -9.364809033320597 0 0 0
87 1 -3.606137174405614 -3.3302577654616563 -7.651837820569809 0 0 0
40 1 -5.369146553241132 -4.844605485775904 -6.606888613877844 0 0 0
86 1 -1.9859279391099474 -4.605288816240098 -9.119417483002874 0 0 0
85 1 -0.8851448300363867 -3.344455498136279 -7.441893352755577 0 0 0
83 1 -13.014188303640564 -1.2952508535370253 -7.610629624290504 0 0 0
82 1 -10.555980999217944 -1.4632070409579718 -9.77595300133888 0 0 0
81 1 -9.38527912694263 -0.2059864918531904 -8.013537013691796 0 0 0
34 1 -10.925801159855245 -1.9637019012936427 -6.753325380533748 0 0 0
80 1 -7.835137890652024 -1.5925614372169754 -9.529522072376526 0 0 0
79 1 -6.531929965826175 -0.37167224015122535 -7.836196863105548 0 0 0
78 1 -4.995722497546232 -1.7056270809490837 -9.165388872957136 0 0 0
77 1 -3.5628335354119827 -0.4399341324463908 -7.4574582712199335 0 0 0
76 1 -2.1178477229227806 -1.7851257220776837 -8.867538024683356 0 0 0
74 1 -0.8660680168616661 -0.46204687493140284 -7.137171856737273 0 0 0
73 1 -13.863275373955762 -13.308850559758294 -5.880145440782218 0 0 0
24 1 -12.837634995361958 -12.497270001573085 -3.8694118937558812 0 0 0
72 1 -9.689965968387744 -11.841773856501149 -6.431687768395543 0 0 0
197 1 -11.190491568333329 -13.539159103572871 -5.415797348503716 0 0 0
198 1 -10.144646944583734 -12.499297429106027 -3.602790285083426 0 0 0
71 1 -8.435229091287049 -13.505691048168265 -4.7970749163028525 0 0 0
62 1 -6.799905360170258 -11.9934902657799 -6.037106760036316 0 0 0
524 1 -5.5446646458446605 -13.691743045777617 -4.553760941622908 0 1 0
70 1 -3.9146107781786696 -12.07974564536358 -5.766109815090897 0 0 0
522 1 -2.5830882238925508 -13.77289506208408 -4.347488626749982 0 1 0
69 1 -1.1963111350722997 -12.385064750625748 -5.476759449523232 0 0 0
67 1 -12.658394236570988 -9.03118143360468 -6.3609048170460785 0 0 0
203 1 -12.963409651587163 -9.59929292408213 -3.410758135337094 0 0 0
202 1 -14.120174290759232 -10.650853800197787 -5.382003935435442 0 0 0
204 1 -11.29308782206234 -10.646102810669392 -4.864446919259855 0 0 0
65 1 -9.63699079055106 -9.129059696121036 -6.068866269956962 0 0 0
206 1 -8.393831481280266 -10.840856274714946 -4.586752513546678 0 0 0
63 1 -6.985202178223439 -9.271831585706778 -5.889534371267235 0 0 0
208 1 -5.638738738969984 -10.809987008972971 -4.363225152963862 0 0 0
61 1 -4.062368375112145 -9.314166823327518 -5.516434859838104 0 0 0
210 1 -2.724405110788137 -10.971690837573307 -3.9585965026366416 0 0 0
58 1 -1.151537895158052 -9.444826705100262 -5.027595033970224 0 0 0
212 1 -14.212162066183955 -8.060258541913267 -4.833680644809645 0 0 0
56 1 -12.703120839965255 -6.271229719328888 -6.172532802446941 0 0 0
214 1 -11.3930344006537 -7.856217717649978 -4.462865667500816 0 0 0
54 1 -9.816323865836962 -6.2247958121999165 -5.700739986371311 0 0 0
216 1 -8.48902946450944 -7.93602614182104 -4.286167150717402 0 0 0
52 1 -7.028112044206687 -6.30939979525399 -5.406254908465566 0 0 0
218 1 -5.733440032861212 -8.003767240674547 -4.218830141292145 0 0 0
50 1 -4.060579058089413 -6.403484399321233 -5.24889749272745 0 0 0
220 1 -2.960921512409442 -8.229376422275646 -3.6393807068372066 0 0 0
49 1 -2.3661509063275297 -7.753563917358314 -6.457527356532029 0 0 0
48 1 -1.267941578839146 -6.527942424749758 -4.776532067824089 0 0 0
46 1 -12.75214586885772 -3.53781813672364 -5.667918653231548 0 0 0
224 1 -11.553283492602562 -5.1599821729560436 -4.31052124083868 0 0 0
43 1 -9.814180009772006 -3.521942966837825 -5.365154241752089 0 0 0
226 1 -8.549612766100275 -5.176800417757839 -3.8711232946573606 0 0 0
41 1 -6.971712653694438 -3.5185250253113693 -5.223167611024742 0 0 0
228 1 -5.758158267484859 -5.220187974801588 -3.710344839097699 0 0 0
39 1 -4.14293756303563 -3.542954313662271 -4.796404197965792 0 0 0
230 1 -2.9777215269054302 -5.240696211342298 -3.378488728619077 0 0 0
38 1 -2.5252938535016494 -4.868786184595438 -6.251861350571068 0 0 0
37 1 -1.2170936518780913 -3.7409418144776634 -4.529404163190648 0 0 0
35 1 -13.42284792716293 -1.1765093398657758 -5.120313052609804 0 0 0
6 1 -12.14838590402396 -0.010890455086700612 -3.306460656969122 0 0 0
120 1 -11.538282901030641 -2.447186203108185 -3.8724950152480986 0 0 0
33 1 -9.786384725548483 -0.6564347499603684 -5.19823392371287 0 0 0
90 1 -8.665774261225781 -2.469687278250941 -3.6554717406309436 0 0 0
32 1 -8.181839980706414 -1.9286274461022845 -6.549943866067047 0 0 0
31 1 -7.060321009395898 -0.7973253383230361 -4.865593440599749 0 0 0
60 1 -5.735706941831863 -2.339751816834122 -3.465762381992077 0 0 0
29 1 -5.272359810104728 -1.9314097310934564 -6.362612712003792 0 0 0
28 1 -4.1108718828438615 -0.7624571923455523 -4.584616415216445 0 0 0
27 1 -2.463946772121478 -2.011107313803656 -5.992836887006048 0 0 0
26 1 -1.3598118936384438 -0.7265735165313227 -4.322089531535655 0 0 0
25 1 -13.199546197019297 -12.750922146679835 -0.9984276299444144 0 0 0
485 1 -11.620598466690971 -14.045074078142695 -2.360244228120145 0 1 0
299 1 -10.385309839834083 -12.69662982361211 -0.645574044097259 0 0 0
911 1 -8.762170459875716 -14.026381128918079 -2.1038418255766675 0 1 0
199 1 -7.2029881586768365 -12.462671965407715 -3.194955075614022 0 0 0
320 1 -7.525957274689682 -12.84432379841753 -0.34299344909485363 0 0 0
481 1 -5.949458616366973 -14.06155035629723 -1.7867873800844922 0 1 0
200 1 -4.357549776518079 -12.462302849061867 -2.79101561684962 0 0 0
401 1 -3.095735727872098 -14.090102624224048 -1.6041617143646114 0 0 0
201 1 -1.5330096828233266 -12.514852068736348 -2.609145354830181 0 0 0
477 1 -0.1722638770826066 -14.123304472864525 -1.1261952271440396 0 1 0
294 1 -13.203257590303293 -9.865697609696692 -0.5635479059705997 0 0 0
23 1 -11.715441477574155 -11.15356594769857 -2.0753324256311565 0 0 0
205 1 -10.013793473144258 -9.498964709322804 -3.103136434021348 0 0 0
318 1 -10.324345558015319 -9.980962035901118 -0.34725995754046224 0 0 0
22 1 -8.812939866957677 -11.180235501035437 -1.8540602029700484 0 0 0
207 1 -7.205096448160331 -9.520904341313845 -2.8894793035488107 0 0 0
21 1 -6.037226038717698 -11.284256114609972 -1.3161654926991613 0 0 0
209 1 -4.487931705942051 -9.631336933571333 -2.532352186944486 0 0 0
20 1 -3.0866893703603218 -11.241996787018838 -1.027466089000436 0 0 0
211 1 -1.50525984771693 -9.710370540875168 -2.210700001306483 0 0 0
935 1 -0.22655653785386498 -11.459740937706153 -0.8642890505387761 0 0 0
1191 1 -13.257456439264836 -7.1568888762112675 -0.05469595151234863 1 0 0
213 1 -13.045469245194973 -6.776755983775918 -3.078225636370444 0 0 0
19 1 -11.616884264663817 -8.270678505505721 -1.742631691445684 0 0 0
215 1 -10.188874097807384 -6.6628618161156 -2.7632759624550243 0 0 0
18 1 -8.84139984204011 -8.314462771237098 -1.3772419595269163 0 0 0
217 1 -7.256466116983672 -6.685273092501123 -2.519644741945319 0 0 0
17 1 -6.043958799444603 -8.344828205103802 -1.1256404552552866 0 0 0
16 1 -3.0924003716212987 -8.438247816465267 -0.7890343941004918 0 0 0
219 1 -4.621132550185294 -6.859594936991912 -2.3135755686772637 0 0 0
930 1 -0.4621038553146981 -8.566025555753793 -0.4302907405138896 0 0 0
221 1 -1.5280991917260227 -6.976855737406695 -1.9917619450225317 0 0 0
223 1 -13.005550234051903 -4.172106199856218 -2.6753197169683762 0 0 0
14 1 -11.652462691375 -5.535235365657101 -1.3204553625411553 0 0 0
225 1 -10.254758834503964 -3.9122707009502466 -2.535481413993896 0 0 0
13 1 -8.856660786393727 -5.523797297191839 -1.1005771211695556 0 0 0
227 1 -7.311508272711553 -3.846749741835078 -2.274464294043625 0 0 0
12 1 -6.081088279159712 -5.4913402242180585 -0.8959786627729684 0 0 0
11 1 -3.2514693742929914 -5.627317857766535 -0.5390035185222661 0 0 0
229 1 -4.498717426985966 -3.9020777179431896 -2.055941983321187 0 0 0
1141 1 -0.09124998588224997 -5.3102246245069225 -3.0682648307804126 0 0 0
926 1 -0.3026011946509346 -5.6573985855602835 -0.1511830973153785 0 0 0
231 1 -1.6712649783247215 -4.080937504072843 -1.597841670074132 0 0 0
4 1 -12.10487174229452 -0.14077619762027815 -0.614200258074705 0 0 0
1160 1 -13.399596777673475 -1.4690817333742565 -2.2709509833050525 1 0 0
10 1 -11.77052249313085 -2.7708175564384963 -1.0900688423103428 0 0 0
9 1 -8.897558699403909 -2.5754374290701545 -0.9011744196128895 0 0 0
105 1 -10.182682873948714 -1.0575539515793029 -2.3423206183034857 0 0 0
75 1 -7.1992124603583765 -1.1124894742962486 -1.9636515204933271 0 0 0
8 1 -5.940520465661709 -2.7433301246165698 -0.5426350112864409 0 0 0
45 1 -4.542391772162135 -1.0333229363172798 -1.6209058371527245 0 0 0
7 1 -3.2332039331914135 -2.665754956278116 -0.23625515621355397 0 0 0
30 1 -2.8709984557788975 -2.3005666786330767 -3.088265653323921 0 0 0
1151 1 -0.13711509029935876 -2.618484526391951 -2.8085768544904663 0 0 0
15 1 -1.6866155363199855 -1.206077719170155 -1.3684354086393906 0 0 0
1265 1 -13.590874615186584 -13.10107857046579 1.9901971356537924 1 0 0
306 1 -12.047488599819623 -14.402150517049046 0.5694903520756398 0 0 0
327 1 -10.8815520026238 -13.123887223221004 2.229098062211886 0 0 0
910 1 -9.099799205676344 -14.311342825190343 0.9075423673225931 0 1 0
367 1 -7.861095655000203 -13.134860654489698 2.4682244203418886 0 0 0
358 1 -6.284943216467548 -11.594113162433118 1.4755614998926703 0 0 0
824 1 -4.966840855814942 -13.278198380774972 2.759278680064318 0 1 0
399 1 -3.475250546730795 -11.69488454493635 1.7486119095103714 0 0 0
359 1 -4.782308848462566 -12.837944744601774 0.04888430682587419 0 0 0
392 1 -1.7934060770354954 -12.923782919678102 0.17699316691674838 0 0 0
694 1 -2.101828628860881 -13.268561257252198 3.2075442872642785 0 1 0
438 1 -0.572997272744761 -11.704159704736867 2.1053385542641614 0 0 0
701 1 -0.5029010608931319 -14.415476093757874 1.8122944968342605 0 1 0
298 1 -12.029474887333391 -11.544460810901715 0.8527262630932597 0 0 0
304 1 -13.654953382851827 -10.120752621700387 2.3802230154360426 0 0 0
297 1 -12.021462223198109 -8.734777674145313 1.2335973233570119 0 0 0
319 1 -9.205645740727718 -11.560419305985926 1.1951926940744855 0 0 0
325 1 -10.739895759309174 -10.35443025110017 2.7127755804424574 0 0 0
365 1 -7.966436070307429 -10.259961115941604 2.931586679973149 0 0 0
356 1 -6.3570335348247315 -8.713082505486868 1.7342157130627598 0 0 0
357 1 -7.707863356880093 -9.94880645616794 0.08607404864097212 0 0 0
397 1 -4.836916601839201 -9.98738096035914 0.36681428555581164 0 0 0
408 1 -5.0101499884747795 -10.268091741322833 3.1687332071359524 0 0 0
398 1 -3.4890716059395253 -8.772930692971837 1.9813833911474479 0 0 0
391 1 -2.001723397048597 -10.183989151628232 0.8061866416479511 0 0 0
1222 1 -0.6384904372883504 -8.872367577887065 2.4198978182507975 0 0 0
302 1 -13.644418843989557 -7.400611568513556 2.6407987003334394 0 0 0
296 1 -12.0194015608751 -5.8366925400328995 1.5353787047968908 0 0 0
317 1 -9.277372120172714 -8.614177357468009 1.4616726295851645 0 0 0
323 1 -10.778031567354928 -7.266891999582639 2.977196932274323 0 0 0
316 1 -10.345047667343335 -7.0983694520719975 0.04941367276750519 0 0 0
363 1 -7.972774260458729 -7.286610566792726 3.2338789155684804 0 0 0
355 1 -7.51137007103644 -7.116954872811829 0.24314376353596145 0 0 0
395 1 -6.414200890677794 -5.9391149211658085 2.000800743030112 0 0 0
352 1 -4.759268721312269 -7.193176050171287 0.6313228472557579 0 0 0
434 1 -3.48100318434793 -5.982231632126643 2.374474877041161 0 0 0
390 1 -1.9406044838154362 -7.2562405969849015 1.0053235020343934 0 0 0
1221 1 -0.67451904151946 -5.897198191759127 2.669054991454093 0 0 0
276 1 -13.602881728366002 -4.575953779436215 2.9724411108938025 0 0 0
278 1 -12.035959865099915 -2.9279136744141745 1.7732961463859347 0 0 0
295 1 -13.368003376659495 -4.35722605179936 0.16862740240364005 0 0 0
315 1 -9.214900742444282 -5.769685503183526 1.7733076657123803 0 0 0
314 1 -10.438462423230037 -4.3333749873242535 0.3080455587564046 0 0 0
321 1 -10.791992892294033 -4.439437737524388 3.234548180901081 0 0 0
353 1 -9.246073392655168 -3.0519070646653716 2.042065869671177 0 0 0
351 1 -7.638521581148906 -4.224262481995266 0.5765519677190305 0 0 0
393 1 -6.340206537505406 -3.0389199359675008 2.3403314998749476 0 0 0
389 1 -4.706851028907577 -4.390063026674676 1.087143953756625 0 0 0
432 1 -3.4654715489636256 -3.1124861089111153 2.7167353395241527 0 0 0
431 1 -2.047898662489713 -4.40208090234564 1.2450081603432626 0 0 0
430 1 -0.6307406216842377 -3.126200393710887 3.1021586396691188 0 0 0
279 1 -13.623835629528513 -1.623880194954607 0.6132050357266827 0 0 0
273 1 -12.154449513829437 -0.2425416153490616 2.195887108869016 0 0 0
274 1 -10.460002537399227 -1.4806587925903418 0.5168775209889436 0 0 0
260 1 -9.366846887190217 -0.28596285818595746 2.289592658265965 0 0 0
803 1 -6.415700114871024 -0.1629454868309015 2.5757828148295445 0 0 0
261 1 -7.578629265582789 -1.502722595301348 0.8599386239330951 0 0 0
249 1 -4.857584267145825 -1.4064048782704468 1.181617597884138 0 0 0
738 1 -3.5575821352143855 -0.19536860021826108 2.8985821261651257 0 0 0
923 1 -0.379116805836027 -2.81824968179334 0.12176984658474765 0 0 0
429 1 -1.957763440537823 -1.574260844489796 1.4914479153882496 0 0 0
239 1 -0.6873341591596311 -0.12166076317217822 3.1587898661166083 0 0 0
311 1 -13.855785986962946 -13.273668216498333 4.873942129329658 0 0 0
305 1 -12.376764990228333 -11.839983276097843 3.6283827374624824 0 0 0
310 1 -12.543335979982615 -12.098516745543241 6.564551103182945 0 0 0
335 1 -10.96841950650656 -13.352563023346791 5.023028030357716 0 0 0
326 1 -9.387920659237585 -11.864094521862583 4.028100240725861 0 0 0
375 1 -8.042474530584684 -13.438899735797296 5.470629065128199 0 0 0
366 1 -6.585573459264855 -11.906569316121992 4.298838584603635 0 0 0
812 1 -5.320465424552337 -13.62736799355613 5.673722687225778 0 1 0
409 1 -3.627386228484175 -12.085900900847069 4.624015966499913 0 0 0
766 1 -2.3663664814906156 -13.662851087383391 5.971855805051808 0 1 0
1224 1 -0.9052524777176529 -12.026339358226007 4.83576679721334 0 0 0
309 1 -13.825067287470874 -10.501115573202588 5.120568213470415 0 0 0
303 1 -12.30321040992806 -8.939604076052435 4.128573748014565 0 0 0
333 1 -10.931573652611782 -10.535025804939671 5.460852985042033 0 0 0
324 1 -9.488671012452254 -8.985993377636099 4.330749731980875 0 0 0
373 1 -8.13348610512803 -10.5707203220238 5.716789791159931 0 0 0
364 1 -6.546611773333544 -9.055379264953029 4.559958314120136 0 0 0
406 1 -5.255990561768849 -10.807651796000496 5.9365183493460005 0 0 0
405 1 -3.745327824473314 -9.261814697482698 4.901103360726781 0 0 0
407 1 -2.152758992227291 -10.501421877713927 3.441619059896711 0 0 0
437 1 -1.0020792079428578 -9.212616472449106 5.040673491148395 0 0 0
446 1 -2.323801451363021 -10.856018606456432 6.27954899125203 0 0 0
307 1 -14.041049910461016 -7.707819391807769 5.444567319116844 0 0 0
301 1 -12.301721415518154 -6.1280169968244085 4.436824199817158 0 0 0
331 1 -11.063097076519199 -7.623525904465354 5.765825067625661 0 0 0
322 1 -9.454963657840928 -6.026798357929387 4.666700099526183 0 0 0
404 1 -6.592273790587517 -6.167174820589603 4.925953079214326 0 0 0
371 1 -8.105601466531368 -7.746118612047453 6.020208830765329 0 0 0
396 1 -5.016710080155036 -7.45995617554639 3.56233205794779 0 0 0
412 1 -5.32958622630653 -7.756884272140646 6.255123777624812 0 0 0
442 1 -3.608478430958474 -6.209229686016952 5.2857310714400345 0 0 0
436 1 -2.235878795098465 -7.537653190910749 3.8721406480709017 0 0 0
435 1 -0.9479926044160258 -6.313247951023733 5.644027416922091 0 0 0
1270 1 -13.874017591880122 -4.828973066501089 5.791000143607489 1 0 0
270 1 -12.351260716186797 -3.171360936451798 4.745897528230406 0 0 0
329 1 -10.974324131813447 -4.81444959096433 6.084156435299951 0 0 0
361 1 -9.423948731274645 -3.266370012520156 4.911280536060056 0 0 0
354 1 -7.9409684764731265 -4.585398930668092 3.365624709047113 0 0 0
362 1 -8.189975791778998 -4.910594339010034 6.284398385695299 0 0 0
402 1 -6.726465807658322 -3.306650192677999 5.026349419637265 0 0 0
394 1 -5.1287889601355765 -4.661527961643898 3.793107592252122 0 0 0
440 1 -3.824357167817201 -3.2815602229695866 5.565606080341981 0 0 0
433 1 -2.1590914390975886 -4.63901074896612 4.109378129052791 0 0 0
293 1 -0.9304639468353137 -3.2463582249160954 5.8301650957663735 0 0 0
277 1 -13.783687215074458 -1.9217278692013142 3.2969000548201866 0 0 0
268 1 -13.959579374041768 -1.855416889031929 6.03883411810463 0 0 0
271 1 -12.377639372537725 -0.5318777343515233 4.932793585974997 0 0 0
272 1 -10.793372493785641 -1.7251881264159827 3.5731914280732813 0 0 0
258 1 -9.396604840534607 -0.40523664748101673 5.231410244246147 0 0 0
255 1 -10.992602319564106 -2.000608849084026 6.357492375511159 0 0 0
259 1 -7.9990662492355264 -1.6501265864522079 3.627828051442771 0 0 0
247 1 -6.702583881807523 -0.43485634389984895 5.351931052399818 0 0 0
257 1 -8.14574365851858 -1.9768484972439833 6.560207544723193 0 0 0
237 1 -3.818720118194502 -0.41859917794884005 5.785339940222078 0 0 0
248 1 -5.076334278907712 -1.7371778305145504 4.05823605675271 0 0 0
238 1 -2.1482933257242074 -1.708125249328738 4.397390030599022 0 0 0
765 1 -0.9456437573190843 -0.46283135579340495 6.080305377434298 0 0 0
347 1 -12.766676436077123 -12.244481514903525 9.366695729189379 0 0 0
313 1 -14.262022046902093 -13.565649486275985 7.651165178010553 0 0 0
334 1 -9.688209316316268 -12.210227377354908 6.812299319576811 0 0 0
342 1 -11.251265251983467 -13.717032503776124 7.905978481488765 0 0 0
380 1 -10.0421937303331 -12.285621140867095 9.63512109862486 0 0 0
374 1 -8.285128387351406 -13.769038961627073 8.309992958183825 0 0 0
417 1 -6.880386794330368 -12.130032785869185 7.0481708902632665 0 0 0
416 1 -5.473226477321004 -13.703268706514306 8.53827796359199 0 0 0
447 1 -3.9008981496636324 -12.167571887956367 7.451830146527167 0 0 0
455 1 -2.646844045386759 -13.691444111306309 8.902818645918567 0 0 0
1229 1 -1.1050827760287785 -12.212209966743105 7.767179781821353 0 0 0
308 1 -12.534462674220908 -9.221282746247994 6.754899394389357 0 0 0
345 1 -12.92143530602383 -9.659727972377354 9.563040645683381 0 0 0
312 1 -14.201370054311688 -10.874687043093108 7.930499557042625 0 0 0
340 1 -11.344867020230751 -10.783221421190905 8.06686513590635 0 0 0
332 1 -9.667975220369032 -9.217728766498734 7.088382929694111 0 0 0
372 1 -8.441565606671562 -10.898243251129493 8.552232647066097 0 0 0
422 1 -6.883270459991126 -9.249710778597267 7.396142273675915 0 0 0
415 1 -5.4936942439209435 -10.81992967901481 8.830229267917916 0 0 0
454 1 -4.0484163988957995 -9.31032252887109 7.695274834721198 0 0 0
453 1 -2.634863328807457 -10.821918241437047 9.134796735711385 0 0 0
445 1 -1.2259315292382968 -9.324516264497868 7.916838754267081 0 0 0
330 1 -12.679728160280677 -6.430162159619746 7.255379736793833 0 0 0
343 1 -14.16289291981148 -8.03920940288794 8.25295947571261 0 0 0
338 1 -11.317818059211042 -7.979865185282957 8.618436197390123 0 0 0
376 1 -9.637701396784996 -6.410720587305757 7.512260326076911 0 0 0
420 1 -8.438138615763181 -8.0267795471965 8.897653441734755 0 0 0
370 1 -6.859724742358781 -6.4570213184067935 7.799763100584586 0 0 0
414 1 -5.630636557949991 -7.94397262160494 9.180456614904307 0 0 0
450 1 -4.104683040076223 -6.3750575288804985 8.123818086401924 0 0 0
444 1 -2.465274379181075 -7.91324517271939 6.629090963794544 0 0 0
452 1 -2.7272669987315012 -7.9909672544845085 9.496390619196488 0 0 0
443 1 -1.2759063594022226 -6.450809561128116 8.407389319361618 0 0 0
336 1 -14.190910536982045 -4.973844932440288 8.603671522990807 0 0 0
267 1 -12.624156776081138 -3.433766611163705 7.443161907000205 0 0 0
275 1 -11.404094588912326 -5.211238564821011 8.876756749455035 0 0 0
369 1 -9.637281653949028 -3.543814248991964 7.7016698433413335 0 0 0
377 1 -8.468619402290667 -5.076638989378166 9.280236421292399 0 0 0
410 1 -6.890755764024281 -3.681868197954987 7.980109841427511 0 0 0
403 1 -5.385049803993306 -4.88921802345943 6.696106366330428 0 0 0
411 1 -5.534522025401374 -5.141962590887179 9.555730977184252 0 0 0
448 1 -3.9785820702176817 -3.5845180500541467 8.331067208930184 0 0 0
441 1 -2.5025897079783554 -4.770820236178999 6.966339184467232 0 0 0
292 1 -1.1497974589820021 -3.556501570368546 8.65122066182901 0 0 0
449 1 -2.7654176825783363 -5.218776727781778 9.835960778122972 0 0 0
265 1 -14.21274471516431 -2.2471577711733577 8.804449052673087 0 0 0
269 1 -12.665517325276474 -0.6587028330138711 7.7532967305437435 0 0 0
252 1 -11.35710803784113 -2.294489707672179 9.054819983399637 0 0 0
256 1 -9.688834191795952 -0.7521888843588336 8.02613102714084 0 0 0
254 1 -8.406342302756748 -2.2770701700099742 9.30266164808114 0 0 0
245 1 -6.953672633570069 -0.6220201123394844 8.449501279323327 0 0 0
244 1 -5.694544114716091 -2.3808472055579415 9.72088513508479 0 0 0
246 1 -5.392899337464398 -1.9699046580596953 6.954761464497112 0 0 0
235 1 -4.056882038036834 -0.6442177461504635 8.55056959519606 0 0 0
236 1 -2.55324982560591 -2.0144994308947908 7.077331806263322 0 0 0
282 1 -1.2151711798464415 -0.7836646618826499 8.769268485303828 0 0 0
350 1 -14.366578377324348 -13.973873449190522 10.450316803707482 0 0 0
386 1 -13.088948234935092 -12.652159135320167 12.136050271344525 0 0 0
341 1 -11.483029478800272 -13.87005288136427 10.690205391001347 0 0 0
387 1 -10.231009039893088 -12.57948647692672 12.505367024730747 0 0 0
381 1 -8.574293835225799 -13.916036456578428 11.129965793797334 0 0 0
423 1 -7.055642004983279 -12.343063425727582 9.97369343768313 0 0 0
428 1 -7.233086968097381 -12.626737461159033 12.770498739354052 0 0 0
196 1 -4.4888651194636005 -12.630726060152956 13.042923830918317 0 0 -1
466 1 -5.580562917253898 -13.961725229258949 11.192376959181301 0 0 0
462 1 -4.095973789836307 -12.423447543338835 10.222872635553697 0 0 0
283 1 -2.905192625224732 -13.916828454486811 11.791751626037483 0 0 0
1253 1 -0.10395732991177553 -13.946935104105828 12.11935161769122 0 0 0
284 1 -1.349644594535583 -12.417216237473463 10.57017134818514 0 0 0
346 1 -13.211861418741364 -9.761944481988468 12.49197780817135 0 0 0
339 1 -11.595283113080356 -11.017382350699679 11.146799371857112 0 0 0
379 1 -10.044900888849735 -9.605004879807147 9.88260932739252 0 0 0
385 1 -10.28508289550901 -9.672704397730168 12.780180289577116 0 0 0
427 1 -8.60607971604203 -10.995333172214776 11.541496641642157 0 0 0
421 1 -7.028511858283812 -9.546482468891453 10.241096664454846 0 0 0
194 1 -7.2961849384147905 -9.766210793556425 13.007229373106997 0 0 -1