LAMMPS data file via write_data, version 29 Sep 2021, timestep = 0

1868 atoms
3 atom types

-13.808376964048986 13.808376964048986 xlo xhi
-13.789306516081423 13.789306516081423 ylo yhi
-14.448284579305229 14.448284579305229 zlo zhi

Masses

1 55.847
2 1.008
3 1.008

Atoms # atomic

194 1 -10.596821176206882 -11.876679003124881 -12.211784279771013 0 0 0
203 1 -13.670707755999693 -11.193035895589926 -12.856904591580344 0 0 0
192 1 -8.39649822711895 -10.853399153882997 -12.981545094050608 0 0 0
186 1 -8.82016029381687 -13.315430535765476 -13.09548052480005 0 0 0
184 1 -6.22956866588757 -12.092155124366492 -13.386099696690973 0 0 0
587 1 -4.001407578546091 -13.254529958325925 -13.882697791232443 0 1 0
182 1 -3.556121614560171 -10.825648441840022 -14.09119523599347 0 0 0
176 1 -2.204377075805155 -12.517941731433083 -11.943278549450293 0 0 0
180 1 -1.0073653856418314 -9.529216608534048 -14.345802116669038 0 0 0
198 1 -11.339769810283816 -9.90240536046145 -13.307772653228204 0 0 0
170 1 -11.095037721180201 -7.509086135895227 -13.623292917309712 0 0 0
1157 1 -13.713103910842078 -8.646733405370995 -13.112628669493354 1 0 0
197 1 -8.87833601126048 -8.667381728852476 -14.01625256351218 0 0 0
161 1 -9.724890041268898 -9.23268458480915 -11.872708929573886 0 0 0
159 1 -7.409647566568865 -7.932738420614068 -12.456902503405265 0 0 0
190 1 -5.916581988569923 -9.690554982078957 -13.537417858077657 0 0 0
157 1 -5.086586632933335 -6.933186317402785 -13.090571347219164 0 0 0
145 1 -4.039168834345112 -8.814027725413489 -11.882672897895038 0 0 0
181 1 -1.8618628733796925 -9.934703254763177 -11.995408591552934 0 0 0
143 1 -1.4774292228386443 -7.384580119695025 -12.232016136460025 0 0 0
189 1 -3.215486112806797 -8.415185402221296 -14.184885081236628 0 0 0
199 1 -1.4361724238492855 -11.93062247658357 -14.35686258115787 0 0 0
133 1 -13.006662613992113 -3.8192264310297706 -13.62505907122769 0 0 0
174 1 -13.244016791540362 -6.308487227910898 -13.401361292119322 0 0 0
173 1 -10.951749105231881 -5.151394827232529 -14.032111891376353 0 0 0
127 1 -11.725438489441943 -5.645712507979317 -11.717693264833269 0 0 0
169 1 -9.487819650793426 -6.666184318900304 -11.99620980653879 0 0 0
125 1 -9.30713487673702 -4.268335984028477 -12.32559369590043 0 0 0
167 1 -7.059762068202758 -5.530965324795584 -12.716752746739221 0 0 0
318 1 -1.8986346396502842 -0.8000066406946047 -14.39291160647744 0 0 1
166 1 -4.6429812376183595 -4.5654505343305605 -13.348681218808622 0 0 0
155 1 -2.5226539287263403 -5.772039004533644 -13.702839879178281 0 0 0
154 1 -1.0552958482889796 -4.966586671940805 -12.11706989950656 0 0 0
110 1 -3.148670751617466 -3.686973877207709 -11.775449995489776 0 0 0
135 1 -12.59341781027167 -1.278951390145366 -13.793847752334969 0 0 0
82 1 -11.034238024476105 -0.8218093003743778 -12.06065663911864 0 0 0
132 1 -11.485297052349637 -3.1599667745023705 -11.852105362223899 0 0 0
1007 1 -13.494523231882441 -1.8941428441418697 -11.6296198240465 1 0 0
188 1 -0.579681335663194 -7.0774740394949305 -14.399574283707253 0 0 0
130 1 -8.85557298005333 -1.9171091518860521 -12.624563516498418 0 0 0
123 1 -6.763131684911428 -3.2421731011215744 -13.016333138209442 0 0 0
129 1 -6.409801327068321 -0.7013667369076941 -13.349864021486486 0 0 0
121 1 -4.391725161509145 -2.052022259651652 -13.685520256529715 0 0 0
165 1 -2.2259337798787513 -3.2056213878661453 -14.028666584993488 0 0 0
120 1 -2.635585223116202 -1.1843281768164626 -11.985568459536584 0 0 0
232 1 -0.5823588391708636 -2.476172160734764 -12.46342337636098 0 0 0
660 1 -0.5821413199090077 -0.1458717626292927 -6.524309205824879 0 0 0
196 1 -12.55287503072583 -12.89226954208675 -10.848932137972467 0 0 0
151 1 -10.909046071920757 -12.066324626163661 -9.408596674455875 0 0 0
164 1 -13.09004753675612 -11.030102260835644 -9.01999753764235 0 0 0
163 1 -12.321386171477549 -10.506933404582412 -11.142288100928948 0 0 0
149 1 -8.798275359064217 -11.085645006558881 -10.410718224409589 0 0 0
141 1 -7.752381022403388 -12.9660072586381 -8.722952178377525 0 0 0
945 1 -0.17478843010941958 -8.983248104141158 -3.9097876007337984 0 0 0
131 1 -10.616158348601372 -2.651923922640954 -14.166133801124781 0 0 0
185 1 -6.968097929089028 -12.539835200753476 -10.98894136152374 0 0 0
183 1 -4.241560201583166 -11.27467237692273 -11.648291594931582 0 0 0
139 1 -5.207956860676614 -11.72551606291323 -9.285623767672767 0 0 0
177 1 -3.0023860439406214 -12.91791395523966 -9.614928833879532 0 0 0
175 1 -0.46364352214822446 -11.608723588675822 -10.178954390622039 0 0 0
137 1 -2.6999668058907194 -10.361451763979797 -9.811345132826204 0 0 0
171 1 -11.88101975712501 -8.07882221854407 -11.395176167672796 0 0 0
118 1 -12.918486855571043 -8.574774391164347 -9.212326472879926 0 0 0
162 1 -10.707375106774709 -9.75031274269579 -9.645510086659275 0 0 0
116 1 -10.50790404943369 -7.185260344554759 -9.725447113066593 0 0 0
148 1 -7.145150915539145 -10.256015121268078 -8.544660723325432 0 0 0
160 1 -8.29032039235658 -8.363643627830758 -10.090880578133316 0 0 0
147 1 -6.483688081922828 -10.071064984009734 -11.10308194984908 0 0 0
146 1 -4.938032181175634 -9.212293050776925 -9.505822113657224 0 0 0
158 1 -5.968054414686963 -7.3429996459651985 -10.726232555792931 0 0 0
936 1 -0.2115622244528126 -9.160169967328233 -10.256413075235766 0 0 0
144 1 -2.374057067685685 -7.906322796008032 -10.058943328896094 0 0 0
128 1 -12.604702242376392 -6.133511315731732 -9.313954155477191 0 0 0
79 1 -12.36950681318257 -3.709332093038036 -9.612647334036232 0 0 0
126 1 -10.159732501954217 -4.825749891454603 -10.099213779259232 0 0 0
114 1 -7.901574016170008 -5.932493360290695 -10.402870566808035 0 0 0
124 1 -7.6827057716169485 -3.5029207749431386 -10.673089700134685 0 0 0
112 1 -5.568359943348007 -4.841879910644559 -11.023519839550854 0 0 0
100 1 -4.316563204317163 -6.620039022630554 -9.053521224179832 0 0 0
111 1 -4.084429898061076 -4.192735149177105 -9.511197531131371 0 0 0
113 1 -6.477248549234051 -5.32788107024132 -8.733123065873325 0 0 0
156 1 -3.5189805986224627 -6.120929349017033 -11.415289327383682 0 0 0
98 1 -1.8625206161816248 -5.354709534560577 -9.878766169853886 0 0 0
83 1 -12.154706296904656 -1.1293758586407066 -9.850741380214203 0 0 0
77 1 -9.75292161704916 -2.140020905874252 -10.333266026028333 0 0 0
75 1 -7.312021400498643 -1.097527462693428 -10.964513386363814 0 0 0
122 1 -5.166059597465873 -2.370329629910037 -11.428323480804028 0 0 0
66 1 -6.191535528677963 -2.849208327482021 -9.086273678732013 0 0 0
74 1 -5.752725638132635 -0.38542618163590525 -9.389593506086243 0 0 0
64 1 -3.6916501743314694 -1.6492236522256825 -9.678761233368341 0 0 0
231 1 -1.1084816888235878 -0.43131999795634357 -10.422347967565788 0 0 0
109 1 -1.5466501860131974 -2.869472451345006 -10.205778162912491 0 0 0
1150 1 -13.461719024913187 -13.311552671280136 -8.696057446236463 1 0 0
153 1 -11.866378648131526 -12.52878314995396 -7.057313566522843 0 0 0
150 1 -9.447457519622999 -11.337517687887319 -7.645063203369016 0 0 0
91 1 -7.816508767577987 -10.532800082003119 -6.024514562465102 0 0 0
142 1 -8.05355264641797 -12.87452542024008 -5.796851127416344 0 0 0
1 1 -4.801645086986236 -2.1183988766127086 -1.2441955484509997 0 0 0
140 1 -5.877204001150589 -11.808065142557615 -6.715044642918238 0 0 0
218 1 -3.6591992591299842 -13.235417088821649 -7.2793626813512216 0 0 0
138 1 -3.4924985649918003 -10.755897269578282 -7.436845620137965 0 0 0
216 1 -1.2892386534100844 -11.79685241516393 -7.865153934052828 0 0 0
106 1 -11.570339132040587 -10.177616759524154 -7.302930518137103 0 0 0
117 1 -11.49922270677882 -7.67621247566017 -7.496466078654877 0 0 0
13 1 -2.580770112049345 -3.328868491221634 -1.5098496894808484 0 0 0
104 1 -9.157992535237634 -8.902060416565586 -7.833650830389415 0 0 0
103 1 -7.627902225705665 -8.072000580650615 -6.212907454170706 0 0 0
59 1 -9.844057375438032 -6.90039371391196 -6.027637740156516 0 0 0
102 1 -6.854779477690875 -7.849366380749365 -8.44041975234758 0 0 0
89 1 -5.401814843255297 -9.462009710863907 -6.889428081781297 0 0 0
87 1 -3.1010352543999176 -8.175641416191452 -7.599331616673478 0 0 0
85 1 -0.7398058443631825 -6.96414771331889 -8.215432976677196 0 0 0
136 1 -0.9906598861234865 -9.337792857257137 -8.037234102736463 0 0 0
86 1 -1.4446048889905772 -7.384565081813982 -5.911674279078376 0 0 0
80 1 -13.283998602187514 -4.015041566639704 -7.351460499614438 0 0 0
70 1 -11.074925215767163 -5.2375044586887824 -7.783689613356303 0 0 0
1077 1 -13.602101791609874 -6.528816772983098 -7.102762649506008 1 0 0
68 1 -8.57690438155024 -4.016859089525802 -8.488341642138222 0 0 0
115 1 -8.90596313912187 -6.427338855414436 -8.163200845885676 0 0 0
69 1 -9.490512524513145 -4.468052601764358 -6.171667623440737 0 0 0
57 1 -7.394005791821891 -5.731094657528235 -6.4725473471587485 0 0 0
101 1 -5.346207465304378 -6.8355826725943825 -6.79172812059016 0 0 0
55 1 -4.9360756954041936 -4.440507479917656 -7.108574354311135 0 0 0
97 1 -0.3271728318519589 -4.509483475952964 -8.24270658932057 0 0 0
99 1 -2.696914236275232 -5.756472847886487 -7.492413350925726 0 0 0
41 1 -1.0376970261425758 -4.991599023761806 -5.960333150762809 0 0 0
39 1 -12.843303719663762 -1.61121563605972 -7.572783530276877 0 0 0
78 1 -10.67909617540191 -2.7802592109209705 -8.106496655905058 0 0 0
38 1 -11.256986884059543 -0.777674590593513 -6.044067409950596 0 0 0
37 1 -10.446465863239613 -0.40755970105746364 -8.320588797026172 0 0 0
76 1 -8.245932728017724 -1.6135135909882 -8.707131088331094 0 0 0
32 1 -9.178323574163905 -2.0794468495944933 -6.48981873094186 0 0 0
67 1 -7.027893326368532 -3.323301245525112 -6.734263782780467 0 0 0
30 1 -6.731259284337371 -0.9425772170398581 -6.963925612129135 0 0 0
65 1 -4.555252867288006 -2.1281430179092347 -7.393215026915064 0 0 0
53 1 -2.47852526105374 -3.2790662980056506 -7.829615305375002 0 0 0
63 1 -2.06167452744236 -0.876621015701506 -8.287867363804459 0 0 0
52 1 -0.867138333742151 -2.581679739704134 -6.249523857091074 0 0 0
579 1 -9.74779793283626 -13.727762066100453 -7.605049767610365 0 1 0
95 1 -12.721111382114689 -13.138452015376174 -4.9065745874834406 0 0 0
108 1 -12.36021154922396 -10.616383026083684 -4.985594658416293 0 0 0
221 1 -11.161089550095088 -12.260228985851874 -3.1312633200425406 0 0 0
152 1 -10.330633632791253 -11.810966610155662 -5.360874486473731 0 0 0
552 1 -8.90667735946413 -13.43181934295074 -3.587874295476201 0 1 0
93 1 -8.73091089150764 -11.053289693409369 -3.674485479956555 0 0 0
209 1 -4.082083382632348 -10.973744234636696 -5.105662631617642 0 0 0
219 1 -4.334044166271401 -13.455928208132542 -4.6994989886348275 0 0 0
207 1 -6.336096345098667 -12.250682586613504 -4.140975934106542 0 0 0
217 1 -2.116364377138373 -12.309412969318979 -5.453550501509728 0 0 0
948 1 -0.3409721855918555 -11.465577095625491 -3.7808278676826816 0 0 0
213 1 -2.7884675113165294 -12.749932214288998 -3.0361202199269695 0 0 0
119 1 -12.139899122069473 -8.254805992032558 -5.13791496054637 0 0 0
107 1 -10.857825610816871 -9.874509259191512 -3.184072441623602 0 0 0
61 1 -10.52072217064948 -7.305382867566084 -3.660684118468362 0 0 0
62 1 -13.087676777231165 -8.708117602169647 -2.946249429289697 0 0 0
105 1 -10.030183865064402 -9.481580233231934 -5.5766785677984885 0 0 0
47 1 -8.523690131219274 -8.649137832563397 -3.9338736110895383 0 0 0
88 1 -3.9362647727468545 -8.583221995245992 -5.176627525840333 0 0 0
90 1 -6.356253317119654 -9.813840809913373 -4.346326133440426 0 0 0
45 1 -6.038254877739773 -7.366322345155274 -4.537604911779546 0 0 0
317 1 -0.05686935321506503 -4.638966153667745 -14.4164976597359 0 0 1
210 1 -2.5353922926646213 -10.281767254865937 -3.295185830835809 0 0 0
211 1 -1.7767985894275835 -9.794337130140017 -5.677211998132263 0 0 0
225 1 -2.236491191209863 -7.805035464225013 -3.578572893641237 0 0 0
71 1 -12.033878683278223 -5.673793168917353 -5.431633016340674 0 0 0
18 1 -12.805918928465498 -6.122425820545346 -3.2582542979177838 0 0 0
35 1 -12.529490159736026 -3.6468545652539373 -3.4621461903496904 0 0 0
26 1 -10.423376996875938 -4.934159821420552 -3.803203345341254 0 0 0
58 1 -8.208644682964064 -6.23834343213172 -4.069043032670988 0 0 0
24 1 -7.929649790415475 -3.869318459022672 -4.485433575834058 0 0 0
56 1 -5.743155571873885 -4.9662416428990195 -4.832982930279046 0 0 0
14 1 -4.133214596095836 -4.218380242948447 -3.226469724773745 0 0 0
44 1 -4.487263637459838 -6.609582077411726 -2.9888495911828663 0 0 0
43 1 -3.537493639165353 -6.153508923485752 -5.228936069118149 0 0 0
42 1 -1.8586807309528481 -5.252076962178473 -3.756941055182379 0 0 0
54 1 -3.4030108111782695 -3.6255540928501997 -5.422789014458768 0 0 0
34 1 -11.589217573588627 -3.2945209285637773 -5.881951728425163 0 0 0
204 1 -2.232512237293914 -0.9639237121589481 -1.930883358064536 0 0 0
40 1 -12.19245165329563 -1.3165417485514581 -3.6943091302709163 0 0 0
33 1 -10.04766790812227 -2.6006331082394443 -4.073421623254857 0 0 0
31 1 -7.7177324030048595 -1.4517990157659355 -4.696404842128551 0 0 0
1130 1 -13.688797214948188 -8.973797944781001 -6.882464608976669 1 0 0
2 1 -6.0387694380151595 -0.6389940539381023 -3.1530322383348324 0 0 0
22 1 -5.518162865196498 -2.4078959341282804 -5.167679896158823 0 0 0
21 1 -3.9186339962512715 -1.6784946301307393 -3.546976464355092 0 0 0
20 1 -2.9513580709687446 -1.259746681330805 -5.756789788734656 0 0 0
19 1 -1.4065372814349608 -0.43741279052601456 -4.13240929864091 0 0 0
12 1 -1.6967422895508317 -2.918167785114152 -3.777057672884686 0 0 0
1129 1 -13.635886195587208 -13.56510676106169 -2.33732660618619 1 0 0
1101 1 -13.311979808730847 -11.073771293547708 -2.742811543059446 1 0 0
96 1 -12.021049402741124 -12.680248482746652 -0.753156567293205 0 0 0
541 1 -9.697933829098702 -11.449343856549476 -1.474489113512849 0 1 0
551 1 -7.321119846815858 -12.823248137071975 -1.8970228013560142 0 1 0
1634 1 -0.711993863583821 -0.12899031027415653 -0.2013479051603131 0 0 0
212 1 -5.791643128403054 -11.869004487804284 -0.22304188722240603 0 0 0
208 1 -4.899014806283871 -11.40461271669427 -2.5878816333493955 0 0 0
215 1 -3.5357175638509553 -13.047395507262976 -0.714503754793876 0 0 0
227 1 -3.4405774507859572 -10.55991670083007 -1.0069059726930671 0 0 0
214 1 -1.1784598470745955 -11.963526001673163 -1.4378038036447958 0 0 0
50 1 -11.778893606264454 -10.379479072797963 -0.9109377005177031 0 0 0
60 1 -11.489343606014094 -7.971960377796745 -1.3840731422322747 0 0 0
92 1 -7.215301356400362 -10.34847470645081 -2.091343524691961 0 0 0
49 1 -9.265501182435337 -9.011476044214909 -1.705793251169391 0 0 0
46 1 -6.978713992111659 -7.759828244611091 -2.2306793603620676 0 0 0
223 1 -4.723218677904665 -9.051285225240534 -2.731187591335294 0 0 0
222 1 -5.620090699969721 -9.361408169574652 -0.47150338461297636 0 0 0
229 1 -5.339702772355496 -6.920096048982365 -0.7059715883603648 0 0 0
228 1 -0.976577617817048 -9.477809568489926 -1.6178170864502022 0 0 0
226 1 -0.5971594381900562 -6.986009229508039 -1.98550350272191 0 0 0
224 1 -3.0895144062614914 -8.213356579046716 -1.1573999755453155 0 0 0
679 1 -0.24922063037828224 -0.0669828881302017 -12.696522522174021 0 0 0
1053 1 -13.284157771373977 -4.155837019362442 -1.2005641658579531 1 0 0
27 1 -11.256192590782472 -5.639508004039781 -1.5275491184426695 0 0 0
48 1 -7.437234983869299 -5.767441091661237 -0.3337543562906493 0 0 0
17 1 -9.061154772996971 -6.550526882069368 -1.9285732740705246 0 0 0
25 1 -8.773727775463357 -4.110323991200412 -2.292841175247867 0 0 0
15 1 -5.04301331127502 -4.591941464841959 -0.9429922987279991 0 0 0
16 1 -6.58891723265259 -5.307042651223867 -2.670463374974382 0 0 0
230 1 -2.783919615942054 -5.829476150616196 -1.4305920119341806 0 0 0
974 1 -0.4000156258998011 -4.591876602526904 -1.9525113555610076 0 0 0
9 1 -10.601261830393284 -0.5378640361675711 -2.02095949259537 0 0 0
5 1 -10.845514589869593 -2.966889028155512 -1.7692271116399105 0 0 0
10 1 -13.069591773627858 -1.636467390004194 -1.5196321590345807 0 0 0
3 1 -6.879407702135209 -0.9457365302579266 -0.8508617621678134 0 0 0
427 1 -7.091400617102158 -3.327398517695082 -0.7073790345182598 0 0 0
425 1 -9.2486534552723 -2.1457590546254472 -0.1395042591919946 0 0 0
4 1 -8.452163827705835 -1.752842556553217 -2.4811862734687704 0 0 0
23 1 -6.251800919353904 -2.9498617391557804 -2.8354467992566263 0 0 0
178 1 -4.821650681755802 -13.728999701648505 -11.479816535855893 0 0 0
1078 1 -13.631968049533688 -6.666914845409853 -0.8034180009992404 1 0 0
168 1 -8.73602294035281 -6.266161117022518 -14.350758454043367 0 0 0
7 1 -9.812994748506178 -0.16046354098676474 -4.447351989677175 0 0 0
187 1 -9.597750550674174 -13.693253613922188 -10.742662241974815 0 0 0
29 1 -5.161798332869722 -0.11335390083271335 -5.337635744393644 0 0 0
206 1 -7.8138833271663275 -8.286162577850295 -0.016197372946217925 0 0 0
1330 1 -12.752320453187881 -13.228779300391633 1.7008349463716552 1 0 0
450 1 -12.592264861748767 -10.729586566434948 1.386637190237888 0 0 0
449 1 -10.450700580109354 -11.980011197024142 0.8746895136313757 0 0 0
839 1 -8.15377132365792 -13.015559342770311 0.3905608521237518 0 1 0
447 1 -8.810634703125887 -11.063198246591824 2.4646581933444427 0 0 0
834 1 -8.084356136789763 -10.54074898625005 0.3540873552700088 0 1 0
418 1 -6.684557236884789 -12.290170644493953 2.136184595626231 0 0 0
443 1 -4.292591462652673 -11.134108753103527 1.582448195843428 0 0 0
833 1 -4.454285833829731 -13.449947431864828 1.6472589871278185 0 1 0
441 1 -1.9058851350577495 -12.38840986008861 0.9160806916564752 0 0 0
1400 1 -0.4253809104435078 -11.580613491625325 2.562946233393971 0 0 0
452 1 -12.43500246163608 -8.296451086808435 1.0075529635227607 0 0 0
469 1 -10.862698053894789 -7.410496145986769 2.622925407282244 0 0 0
448 1 -10.226597283010722 -9.342520839997121 0.5602791398552345 0 0 0
466 1 -8.58351524413521 -8.698472472858876 2.2214346048197005 0 0 0
446 1 -9.881155322780574 -7.056554443029422 0.38660018791638606 0 0 0
244 1 -4.984748842504722 -13.477559719505788 10.957980376463192 0 0 0
445 1 -6.369007758435402 -9.886133775961754 2.000798625569656 0 0 0
456 1 -6.072736928340182 -7.407178833425328 1.4988999693623501 0 0 0
444 1 -3.9793827548811453 -8.789949222823381 1.1905677593870987 0 0 0
1259 1 -1.6056858537973842 -7.420483068755737 0.5556378901275281 0 0 0
461 1 -1.8426605824259639 -9.876228203389745 0.6936069730021739 0 0 0
327 1 -2.3726461762003037 -7.952677359081411 2.913732148689478 0 0 0
1295 1 -0.2579667830971779 -9.081148806242405 2.468394661657266 0 0 0
454 1 -12.01748241776369 -5.802686383655762 0.8199363103174999 0 0 0
345 1 -12.581423840098536 -3.835724517876887 2.8589375427217956 0 0 0
453 1 -10.45294279586881 -4.973053944436883 2.3438224295340877 0 0 0
467 1 -8.293371456919228 -6.183406556246868 1.9551892979599383 0 0 0
376 1 -7.9841237055306635 -3.8902008438152986 1.714355540571864 0 0 0
1257 1 -0.1784769498372949 -6.7273747978623 8.432359872775981 0 0 0
428 1 -5.842131037826944 -5.065145932704947 1.3897788979022039 0 0 0
430 1 -3.648293197342344 -6.170319981393772 0.9909687943582774 0 0 0
429 1 -3.436042072744403 -3.8133026622225543 0.7261465781065848 0 0 0
432 1 -1.284044275891704 -4.9381433870767015 0.35558678240924557 0 0 0
459 1 -2.029347625331244 -5.575335530523068 2.675051249512931 0 0 0
378 1 -11.821906001056973 -3.3818505619105803 0.44240799168298395 0 0 0
379 1 -12.303238691261063 -1.246732265538034 2.5117288507330944 0 0 0
405 1 -11.532869859396428 -1.0424164853231428 0.2397741050742468 0 0 0
404 1 -9.956689506010308 -0.0896388712834284 1.7955452062255777 0 0 0
377 1 -10.12190655063085 -2.528795247953221 2.043470598777054 0 0 0
403 1 -7.654338752438856 -1.3405899425497427 1.4555284885625035 0 0 0
401 1 -5.545300617734551 -2.655749638082522 1.1240777804150586 0 0 0
373 1 -4.039949582691813 -1.7086718271751842 2.700749186828544 0 0 0
250 1 -13.57524392271384 -13.48774839862812 10.272741241368609 0 0 0
431 1 -1.7607338334292688 -2.988690096532638 2.4163005973241614 0 0 0
399 1 -3.100539196369107 -1.3289544766184136 0.362998870667818 0 0 0
397 1 -1.5968631537883073 -0.510670327210244 2.126958668258 0 0 0
360 1 -3.522059732193526 -1.5139886478633588 12.931318599862978 0 0 0
836 1 -11.21622196529232 -12.285652285218658 3.231608813925577 0 1 0
440 1 -13.45186647098469 -11.139537150574373 3.567043883605942 0 0 0
265 1 -11.928065107111152 -12.732836050364996 5.519954991728353 0 0 0
439 1 -13.576868428486621 -13.559364885334466 3.9049923430494378 0 0 0
435 1 -8.999498748106689 -13.52122251548063 2.7907823914077436 0 0 0
437 1 -9.524284506105538 -11.425496712384888 5.0478357140732495 0 0 0
261 1 -7.475063518494386 -12.618622350111522 4.4800868895756825 0 0 0
419 1 -7.175776998799495 -10.324912287904233 4.309191599391605 0 0 0
464 1 -5.027842295122605 -11.596306984918217 3.9365831939384694 0 0 0
838 1 -3.721864886143303 -13.186111933561826 5.664355839533476 0 1 0
289 1 -3.390704908790763 -10.816657640700175 5.611083569713982 0 0 0
417 1 -2.7411515055653286 -12.901236923861989 3.3007475579500696 0 0 0
462 1 -1.3432127657875004 -11.919384919744125 4.897923122877598 0 0 0
470 1 -11.809793606793729 -10.357764441394721 5.182650465450267 0 0 0
420 1 -10.962193426422157 -9.810233732688584 2.8759724070429495 0 0 0
471 1 -13.14597352315206 -8.835610073478176 3.2981128904842105 0 0 0
295 1 -11.600909955324504 -7.795814912501416 5.000920890135097 0 0 0
436 1 -9.485515970993532 -9.099912476407233 4.5175745666655 0 0 0
291 1 -7.058389166803512 -7.892441816165885 3.9241744432052865 0 0 0
465 1 -4.701864514417766 -9.099610387733975 3.6259073807148052 0 0 0
434 1 -5.446194130189822 -6.9944583402583245 5.63384064269515 0 0 0
442 1 -2.5110673654783344 -10.425634033779357 3.0799360721726448 0 0 0
290 1 -3.0874210675406584 -8.390001898638909 5.174843330674639 0 0 0
1321 1 -1.0125598358476715 -9.581885589784596 4.795203191494851 0 0 0
329 1 -0.7273517849561113 -7.085599912614291 4.5182773874758 0 0 0
335 1 -12.902219257402429 -6.2980724323958865 3.162685928841208 0 0 0
334 1 -13.5257124620861 -4.240930215833016 5.084714297486903 0 0 0
333 1 -11.296907137918321 -5.447597767459385 4.620975889102015 0 0 0
468 1 -9.15330029875528 -6.622425726234301 4.237661960064015 0 0 0
455 1 -8.836230006331915 -4.117350216266059 4.110747777850092 0 0 0
332 1 -7.273534355173855 -3.3965056609510924 5.637516325347127 0 0 0
372 1 -4.321486655090975 -4.30550806960259 3.0503754731104156 0 0 0
331 1 -6.631584300464303 -5.359780877424823 3.615072292009918 0 0 0
458 1 -4.545412890080776 -6.754161263599339 3.2321242976603006 0 0 0
330 1 -5.191899947766542 -4.697002187717414 5.217207300581103 0 0 0
370 1 -0.5010569515925241 -4.580128972216052 4.315916369959956 0 0 0
457 1 -2.9329057085027834 -5.867191037566013 4.873014654915449 0 0 0
328 1 -2.5902354798370606 -3.334205482674461 4.68831033903424 0 0 0
388 1 -11.081488736246293 -2.9591821426523435 4.319668097636223 0 0 0
389 1 -13.172577995845078 -1.840480972333129 4.775914705658407 0 0 0
387 1 -10.64403675360126 -0.6028491323369991 4.143997884228019 0 0 0
386 1 -8.61217130958574 -1.7628675599882797 3.7840020706420976 0 0 0
385 1 -6.963611559947055 -0.9562537127794872 5.359191188116609 0 0 0
375 1 -6.126187895494663 -0.6292085770467697 2.9976028615597397 0 0 0
374 1 -6.422787155598045 -2.9499869140292265 3.3038153529903607 0 0 0
384 1 -4.864655609745919 -2.157171561627484 5.032336469994435 0 0 0
371 1 -2.4474680838014873 -0.9582930270819485 4.514000682525554 0 0 0
1352 1 -0.14422879880651074 -2.161174689345822 4.088117872314127 0 0 0
240 1 -12.846329793379487 -13.072023244128722 7.849598528633136 0 0 0
275 1 -12.64366533246764 -10.695475200579033 7.539290500262583 0 0 0
263 1 -10.385962601620893 -11.884548354649493 7.340426975122925 0 0 0
414 1 -8.18564855182256 -13.001726489166543 7.055679771063337 0 0 0
260 1 -7.933649430589215 -10.642867407321514 6.566783495110153 0 0 0
259 1 -5.82488543485731 -11.908270159448307 6.356036542539131 0 0 0
243 1 -4.2026462981231045 -13.142264148824799 8.584584530870105 0 0 0
433 1 -2.098001543381393 -12.581574973209618 7.301719315857616 0 0 0
320 1 -5.954571004624642 -2.774557923370299 13.4787492369512 0 0 0
264 1 -12.368770268939558 -8.40607176150095 7.250708900235898 0 0 0
438 1 -10.247397264416705 -9.522824307525749 6.89369684516611 0 0 0
301 1 -7.92552037070026 -8.1791206305091 6.328208718564477 0 0 0
293 1 -10.06049886652846 -7.171205702113996 6.6507226204012415 0 0 0
262 1 -8.745147812472096 -8.560386381219308 8.587811331078163 0 0 0
299 1 -5.589195930010053 -9.44532711343538 6.023919731822646 0 0 0
300 1 -6.278930546440368 -7.502355932834225 7.914695373538285 0 0 0
270 1 -6.355164440823097 -9.861384334617448 8.584585021126143 0 0 0
1207 1 -1.8843506576511952 -9.90529802708284 7.132624053833899 0 0 0
288 1 -1.6088138320705383 -7.564095988160784 6.781874996223435 0 0 0
1217 1 -0.27623235872074936 -9.287634367795597 8.715158923012597 0 0 0
294 1 -12.342420726059633 -5.957175166549752 6.923436650720278 0 0 0
304 1 -10.630344766771167 -5.150930241696885 8.511357616487834 0 0 0
346 1 -11.834787957216417 -3.455598358659042 6.482318289789989 0 0 0
343 1 -7.593685449773307 -5.69593591134101 5.780191624124386 0 0 0
344 1 -9.788835794768794 -4.6899157379053324 6.319579007895522 0 0 0
302 1 -8.224450746559139 -3.8295473947694134 8.03457370906675 0 0 0
303 1 -8.581907565473102 -6.190590338596867 8.20320646032141 0 0 0
341 1 -6.1079058083194395 -5.04920889680769 7.533229521781022 0 0 0
292 1 -3.808544926902396 -6.450858627917196 7.142911634892679 0 0 0
340 1 -3.4781275173788497 -3.9377110503297814 6.767320169398856 0 0 0
369 1 -10.192986144481527 -0.20543136741340895 14.426763454366542 0 0 0
337 1 -1.3226708741470006 -5.116756834230751 6.649154512970002 0 0 0
394 1 -11.644623201759643 -1.0485509238378938 6.401804936453578 0 0 0
355 1 -10.39195482703961 -2.541457107586492 8.283957954022638 0 0 0
867 1 -10.05175347884362 -0.17730325109505962 8.072198356300662 0 0 0
393 1 -9.444986271568688 -2.2289415139508435 6.07136701787879 0 0 0
353 1 -7.88541447080075 -1.3962961978560813 7.815785337213095 0 0 0
342 1 -5.715809185227892 -2.6538408846374164 7.334139185737483 0 0 0
296 1 -13.761814526128743 -6.820578792416753 5.370692543227031 0 0 0
1362 1 -0.7761709872807501 -0.20935663719212982 5.963121633682446 0 0 0
382 1 -3.2986918789539352 -1.4147814621200911 6.728586623563535 0 0 0
380 1 -1.0702236307733646 -2.702010348463947 6.363412476135826 0 0 0
391 1 -1.6873864202723379 -0.7279365693830133 8.319120394989133 0 0 0
338 1 -2.0060075451745476 -3.1335923667683687 8.608451810278824 0 0 0
241 1 -13.45353733495822 -11.030860606402118 9.86462283846688 0 0 0
794 1 -11.12972573799936 -12.237673648203767 9.773674242866045 0 1 0
316 1 -13.614165353173133 -4.115686040535124 11.137821961566944 0 0 0
271 1 -8.55223576882111 -10.998889978220612 9.01966632383404 0 0 0
245 1 -7.330733802791463 -12.551241777045387 11.219570792492815 0 0 0
253 1 -9.631516955746111 -11.32194501961575 11.451937239062678 0 0 0
273 1 -8.99160400156445 -13.343883500187129 9.295012000015118 0 0 0
392 1 -5.416892077005015 -0.219426024716876 7.055525304408542 0 0 0
269 1 -3.863038030399645 -10.730607218740127 8.321187202681932 0 0 0
238 1 -6.332311381522212 -12.208495421039396 8.916061618765527 0 0 0
279 1 -4.5987906463663855 -11.273847328716062 10.679224377434737 0 0 0
258 1 -0.5101132014667726 -11.780568067128062 8.834561915643716 0 0 0
1197 1 -2.2784967661869633 -12.443729911696272 10.188115087582778 0 0 0
305 1 -10.98675549454654 -7.546625726724121 8.87706636176337 0 0 0
276 1 -13.19715262135318 -8.66007091566371 9.517724941584573 0 0 0
274 1 -10.969843480323867 -9.89859633752281 9.178214936406631 0 0 0
255 1 -11.812992401219407 -7.861469825941403 11.250040759078574 0 0 0
249 1 -9.712148767702008 -9.10643240024162 10.818083220572037 0 0 0
272 1 -7.0260300932985436 -7.958341122290054 10.182412477638914 0 0 0
281 1 -6.828068557071837 -10.267526427390443 11.172135964368744 0 0 0
268 1 -4.331569631241914 -8.863759750857621 10.603257059349696 0 0 0
297 1 -2.660243411078053 -8.024159800896165 8.940716356212187 0 0 0
267 1 -1.9433568551041631 -9.935526652880895 10.409316763403774 0 0 0
307 1 -1.041975960608946 -7.563824451043393 10.585034316873601 0 0 0
1363 1 -12.851236536399544 -3.8009239423862606 8.830999869062568 1 0 0
1311 1 -13.061732687445579 -6.278916535270261 9.223155374551714 1 0 0
315 1 -11.542962055991511 -5.559721100262793 10.869252015014945 0 0 0
313 1 -9.257706826273784 -6.7704636203926665 10.585301054172438 0 0 0
314 1 -9.121307610387511 -4.244499189123699 10.271725604347123 0 0 0
339 1 -4.8975699927365675 -6.651975691295972 9.54391849608549 0 0 0
311 1 -6.935929841994748 -5.47595435166023 9.754919488304173 0 0 0
351 1 -4.463031221141289 -4.302873926052323 9.067675532025264 0 0 0
298 1 -2.295733794431534 -5.526169490966465 8.89142359858837 0 0 0
347 1 -0.7365567333047043 -4.862772710433752 10.583383362280466 0 0 0
309 1 -3.2503737897401788 -6.198276209463865 11.098587567419491 0 0 0
349 1 -2.7699158374432464 -3.533864944311391 10.829488105466401 0 0 0
356 1 -12.497889580316944 -1.3047010130467527 8.750691352395629 0 0 0
1369 1 -13.238357346237747 -1.7861826628725055 10.952907828599633 1 0 0
365 1 -11.127064804697834 -3.0976568460204597 10.52524035843029 0 0 0
875 1 -10.96859029077417 -0.5601341948396943 10.378312023371349 0 0 0
354 1 -8.75451456569862 -1.8604966378233634 10.033394011674732 0 0 0
312 1 -6.657560041243154 -2.9638967210714604 9.63026779620772 0 0 0
350 1 -4.17793121052293 -1.8243183596393955 8.937491061165561 0 0 0
352 1 -6.346758109535202 -0.5359263770668434 9.343592455951187 0 0 0
361 1 -4.90191471186813 -2.25705852217674 11.29099541494825 0 0 0
1320 1 -0.44172875723259786 -2.3815205624757922 10.319863956049355 0 0 0
348 1 -2.723576019137697 -1.1923033152226736 10.568207029970699 0 0 0
247 1 -11.946273131512863 -10.20348580508029 11.620678377617972 0 0 0
236 1 -12.019263314856257 -12.694176842123596 12.080592162242626 0 0 0
256 1 -12.824927225948853 -10.628309330949204 13.842255532209853 0 0 0
195 1 -12.9119312561403 -13.125480053145575 14.290033940703742 0 0 -1
254 1 -10.362364091273054 -11.811510440396162 13.963764011758636 0 0 0