LAMMPS data file via write_data, version 29 Sep 2021, timestep = 0

1870 atoms
3 atom types

-13.763485715687304 13.763485715687304 xlo xhi
-13.808289844412062 13.808289844412062 ylo yhi
-14.384435241765301 14.384435241765301 zlo zhi

Masses

1 55.847
2 1.008
3 1.008

Atoms # atomic

115 1 -11.12005823702778 -12.136620161286935 -12.789985115159435 0 0 0
111 1 -12.915640586728564 -10.518735963020744 -13.332827597907007 0 0 0
118 1 -13.215293734524439 -12.899005613177405 -11.421805385133167 0 0 0
653 1 -6.966093846509213 -13.657863435444504 -2.4081267450613293 0 1 0
216 1 -7.262884517764394 -13.056221906186913 -13.551168293275806 0 0 0
321 1 -9.091470174124584 -11.482914056041986 -14.067975117528253 0 0 1
232 1 -8.534902197286616 -11.554548482765554 -11.689450271607774 0 0 0
26 1 -8.163651945933596 -1.6440056055757406 -0.9162931484280126 0 0 0
100 1 -6.61226097504375 -10.789665191960228 -12.98518551784624 0 0 0
193 1 -4.764096029358345 -12.456544996197081 -12.430704283010142 0 0 0
318 1 -0.9831630094367849 -13.120780698169769 -13.246540075906461 0 0 1
317 1 -2.702368514952621 -11.674251905027056 -13.717902204377578 0 0 1
168 1 -0.2237832665320738 -10.855390178400132 -12.635598056676931 0 0 0
117 1 -12.121174623451713 -8.218478452732883 -12.70668196015468 0 0 0
116 1 -10.384316320640023 -9.918765942146273 -12.194307965886473 0 0 0
347 1 -10.21803581410063 -7.585001445239371 -14.00423419562184 0 0 1
97 1 -8.411704900646743 -9.23685665567367 -13.536882148796602 0 0 0
92 1 -9.711948448851391 -7.711649400789447 -11.490630169868336 0 0 0
68 1 -5.873953419968618 -8.399568580588534 -12.382622866756325 0 0 0
70 1 -3.8395589824949887 -7.786853092395827 -13.457492971845854 0 0 0
72 1 -4.101951472513248 -9.985089752222448 -11.895498158017578 0 0 0
4 1 -0.23235156306835592 -2.4018156374062247 -11.184931768905235 0 0 0
307 1 -2.184607299447814 -9.26240503358221 -13.102213930357864 0 0 1
20 1 -1.3347437539432896 -7.1557327543912095 -12.397056266662181 0 0 0
128 1 -0.48254911922123966 -3.1997712729411063 -2.680368361448341 0 0 0
113 1 -11.428695821332216 -5.992550158929242 -11.967448733243515 0 0 0
407 1 -11.48731174233315 -3.850313907165649 -13.830949836253241 0 0 1
962 1 -13.477925591512415 -4.478220911764833 -12.443705532121566 1 0 0
88 1 -10.874123433883867 -3.826223970490757 -11.372530877305671 0 0 0
98 1 -7.733174955671006 -6.852474317170691 -12.778550646948311 0 0 0
94 1 -9.667517455919741 -5.431113637451137 -13.332959542637633 0 0 0
64 1 -7.170652603858468 -4.5266110422619725 -12.233227731900504 0 0 0
71 1 -4.942885430215085 -3.8978715055854636 -13.402305347374519 0 0 0
99 1 -5.690318432987315 -6.150073277025737 -14.190115584589915 0 0 0
69 1 -5.245216363592386 -6.1389445683804365 -11.716145584674345 0 0 0
43 1 -3.1566151532309714 -5.5851468592121645 -12.872255802040376 0 0 0
21 1 -0.645963560106555 -4.885531403500517 -11.829384763942759 0 0 0
1057 1 -13.473104149748513 -6.629205220592203 -10.653496994258658 1 0 0
95 1 -10.770685444158435 -1.5907847178807089 -13.189532071080407 0 0 0
963 1 -12.772223391664218 -2.273814051058288 -11.908291990907536 1 0 0
523 1 -4.89107218521549 -0.04377057258365724 -6.047456149430145 0 0 0
66 1 -9.02555526047838 -3.1317690020974265 -12.655657745115242 0 0 0
604 1 -8.339312071314751 -0.8880279272061227 -12.035772612534 0 0 0
40 1 -7.016851761011988 -2.3670006930914376 -13.924228586144595 0 0 0
45 1 -4.406732417923733 -1.6983757514878377 -12.681040999355238 0 0 0
65 1 -6.495344363440237 -2.4187936683718476 -11.510271200860991 0 0 0
74 1 -13.760423565459716 -5.144106733859065 -3.842417628405986 0 0 0
16 1 -2.540500122932185 -3.2631608110327033 -12.258466511300231 0 0 0
945 1 -0.5399078510363235 -2.5605510914880423 -13.71350500025728 0 0 0
23 1 -2.4620780734789864 -0.9860302803260552 -14.103000877951661 0 0 0
17 1 -2.0678284084387712 -0.8721169878404265 -11.675670522543921 0 0 0
231 1 -12.461401399022987 -12.822455662584463 -9.08868616603857 0 0 0
555 1 -10.526230549717392 -12.065116195111477 -10.31030422711661 0 1 0
119 1 -12.43750109120413 -10.490340605501315 -10.900419454457653 0 0 0
24 1 -1.2146234215293408 -4.820292780322935 -14.201975544728851 0 0 0
213 1 -8.209551474989318 -11.414437347673662 -9.212819641381898 0 0 0
214 1 -6.841174879558253 -13.055998534780464 -11.071299705960115 0 0 0
189 1 -4.202218037091674 -12.317387925054806 -10.01695604346348 0 0 0
191 1 -5.993106521719522 -10.620556177539445 -10.650952151306285 0 0 0
211 1 -6.311494441353269 -13.018223286800982 -8.682424116946638 0 0 0
192 1 -2.2256312461461576 -11.50824451630921 -11.454214755559265 0 0 0
162 1 -1.7009837687398726 -11.66097776695229 -9.115295831453986 0 0 0
166 1 -0.28568295503381513 -13.29084584871708 -10.839272363467666 0 0 0
109 1 -11.78400054423399 -8.296620764611877 -10.259292883552433 0 0 0
114 1 -9.975394716816748 -9.81048210409859 -9.736330225179314 0 0 0
96 1 -7.932317850639085 -9.310310391590306 -10.969825310874972 0 0 0
90 1 -9.25621844324641 -7.63776119849763 -9.112244660339158 0 0 0
187 1 -7.3738366451543484 -9.213897458496016 -8.641021314326313 0 0 0
67 1 -5.257955615075204 -8.400970611088294 -9.913301843152027 0 0 0
164 1 -3.4752357736442754 -10.035706420183976 -9.468207053737938 0 0 0
42 1 -3.3967654322862977 -7.7629423502864 -11.073234583293399 0 0 0
46 1 -1.5053040247589937 -9.260059758539935 -10.730954440472175 0 0 0
41 1 -2.9041612203404377 -7.792242441771246 -8.660569689737422 0 0 0
19 1 -1.0499559976277535 -7.085718439502037 -10.071021280193303 0 0 0
110 1 -11.117846400118992 -6.043104931988252 -9.639551380216089 0 0 0
112 1 -12.916481257029849 -4.43936624624587 -10.023521989225438 0 0 0
86 1 -10.289476726127145 -3.74985844941582 -8.955768288484766 0 0 0
246 1 -4.416272733763387 -4.601604888726666 -0.0917342577478486 0 0 0
62 1 -7.309785310797793 -6.945508798232641 -10.509165929779476 0 0 0
93 1 -8.977808947391422 -5.429344704250134 -11.035424893151063 0 0 0
63 1 -6.580010644612361 -4.626886049767311 -9.806607566027855 0 0 0
36 1 -4.581549370628437 -6.140223168144438 -9.221607324348767 0 0 0
38 1 -4.627394295802494 -3.923998178468251 -11.060555029520792 0 0 0
37 1 -4.034865538216739 -3.923576779091487 -8.631044093370306 0 0 0
14 1 -2.7176373495308273 -5.417976871010891 -10.474396025614775 0 0 0
940 1 -0.21652995010845721 -4.712665508514933 -9.394785877817966 0 0 0
107 1 -12.328233209945276 -2.1859088740229264 -9.50652906919098 0 0 0
614 1 -10.33921406461576 -1.6459890726126183 -10.82353550948125 0 0 0
60 1 -8.426845463794491 -2.998450950735302 -10.300177066649432 0 0 0
569 1 -7.689466344099805 -0.8154683586241571 -9.484759671616677 0 0 0
34 1 -5.833656565015478 -2.352198340003655 -8.907773265483744 0 0 0
39 1 -3.9174009724391894 -1.6339123435210592 -10.234603255717232 0 0 0
965 1 -12.174985646135779 -0.0006548171077778164 -11.21266440428162 1 0 0
101 1 -12.695785366403046 -2.7725281006396383 -0.8451138227468213 0 0 0
15 1 -2.0278485687688423 -3.260459471630041 -9.854653432640951 0 0 0
3 1 -1.5278142476921328 -0.9232999034879903 -9.238574959796395 0 0 0
227 1 -12.012330095513875 -12.82571996793109 -6.615235622810382 0 0 0
228 1 -11.331507433514979 -10.471516521459694 -6.083510619968578 0 0 0
229 1 -11.973052691447116 -10.501985778344313 -8.45997793578401 0 0 0
230 1 -10.08535628787202 -12.170570975091403 -7.904897689905881 0 0 0
185 1 -7.4649489466388665 -11.38288147621958 -6.826453127366679 0 0 0
27 1 -4.373971523478849 -2.5123735641109004 -1.8317967145044367 0 0 0
183 1 -5.677821324339742 -13.011922125909331 -6.217563838643066 0 0 0
190 1 -5.467127779821999 -10.627710732729305 -8.141067983420884 0 0 0
188 1 -3.6418813796227703 -12.318773896781062 -7.532382413968481 0 0 0
161 1 -1.0613906157630506 -11.760478724088541 -6.506854911825784 0 0 0
210 1 -11.208938452160908 -8.260654154814858 -7.8176124552706785 0 0 0
225 1 -13.100829621329664 -9.073160519890509 -6.488797497346051 0 0 0
208 1 -9.429861921914924 -9.875381067778722 -7.271353011475361 0 0 0
89 1 -8.615292841958158 -7.6655506009541226 -6.777986737453998 0 0 0
186 1 -6.851045841149866 -9.187723464411553 -6.190668006959536 0 0 0
160 1 -4.740452699066296 -8.401029690765 -7.409351083571847 0 0 0
61 1 -6.602925197312444 -6.884624004384022 -7.9567256922569 0 0 0
141 1 -1.0928971985205198 -9.36040465405644 -8.315163271796287 0 0 0
163 1 -3.0511845070136285 -10.116424728226816 -6.966042153082503 0 0 0
139 1 -2.339763245917201 -7.730126855085642 -6.294165581098673 0 0 0
1010 1 -0.4108537391738114 -7.075376754214137 -7.654685353728044 0 0 0
108 1 -13.083443862495793 -6.68954213871814 -8.270748178263478 0 0 0
106 1 -12.525964178418448 -4.365243543332248 -7.644974676284474 0 0 0
84 1 -10.540162397548468 -6.0169141873889345 -7.369539664779199 0 0 0
104 1 -12.470469311364653 -6.677887071404301 -5.876996985794996 0 0 0
91 1 -8.661427332746337 -5.348905183189444 -8.57970276629333 0 0 0
85 1 -10.010317249017609 -3.822489104891149 -6.583098633078524 0 0 0
56 1 -8.050283439874992 -5.415376898386759 -6.142633017038834 0 0 0
35 1 -4.077638905512069 -6.061449043547312 -6.68902043293966 0 0 0
32 1 -5.958984572803406 -4.479087800337146 -7.252351913483736 0 0 0
10 1 -3.4895205716863664 -3.8752197937971644 -6.121463051339184 0 0 0
13 1 -2.2078282423993336 -5.451223413056962 -8.020993981738085 0 0 0
135 1 -1.6761951255593335 -5.436149953282211 -5.652308916419294 0 0 0
80 1 -11.813693159897934 -2.0326225427611107 -7.017286385810948 0 0 0
1027 1 -0.028838968020007627 -11.644212499737236 -1.6387255841332617 0 0 0
58 1 -7.962528646191364 -3.0794963766771826 -7.751922047887537 0 0 0
87 1 -9.791541265421714 -1.49210082475164 -8.140446993860108 0 0 0
59 1 -7.172359942632744 -0.7730530917662932 -7.119683797530707 0 0 0
54 1 -9.308159853630475 -1.4207144070330084 -5.9053846690492335 0 0 0
49 1 -9.993268510054875 -0.08492450830005893 -1.5494024897948577 0 0 0
33 1 -5.407659977169219 -2.250218996607938 -6.636204433771795 0 0 0
1097 1 -13.533434504887015 -12.767502558590841 -13.919076715514858 1 0 0
12 1 -3.318471548535655 -1.6632706681776614 -7.822627968482098 0 0 0
2 1 -1.428249958199304 -3.127656362319547 -7.392753169040697 0 0 0
938 1 -1.0360828145667167 -0.8708178432594771 -6.778100096787094 0 0 0
1405 1 -13.527757709638037 -13.636915283927015 -3.025665824772936 1 1 0
223 1 -13.313664507770564 -11.222570047279135 -4.690239417168913 0 0 0
1407 1 -11.576694125220483 -12.83124646103542 -4.218911178854944 1 1 0
204 1 -10.570298057360597 -10.53487688469078 -3.737087997917369 0 0 0
226 1 -9.500193840021758 -12.178806872700882 -5.544591047442584 0 0 0
207 1 -8.7419320876445 -12.302879413165348 -3.05327313333755 0 0 0
184 1 -6.916966414597768 -11.425391951867475 -4.371320034132658 0 0 0
522 1 -4.228244803696276 -0.2664927982287839 -3.576446603039569 0 0 0
158 1 -4.915242216046426 -10.784969859858586 -5.588019092699147 0 0 0
182 1 -5.041057251829612 -13.154931111396557 -3.7553474413855827 0 0 0
150 1 -4.394479754161578 -10.82500826043282 -3.312687314245661 0 0 0
156 1 -3.084233019353954 -12.479793183050694 -5.177029363290325 0 0 0
136 1 -0.6169922510418839 -11.66798368437147 -4.123311008042727 0 0 0
224 1 -12.6581916727082 -8.949966527269217 -4.100325667056222 0 0 0
206 1 -10.563407539674179 -8.311899219722793 -5.43881953287549 0 0 0
209 1 -8.708597175238646 -9.850524881884244 -4.899229856188326 0 0 0
181 1 -8.072455453784748 -7.645439097995733 -4.2140626584642735 0 0 0
205 1 -10.254693785198482 -8.320554705418242 -2.99691056773365 0 0 0
152 1 -6.269839146752912 -9.16089310636168 -3.6566656490056673 0 0 0
159 1 -4.279391596211958 -8.42238283582536 -5.062367332706124 0 0 0
154 1 -6.085628497847008 -6.854614554053988 -5.592329267690303 0 0 0
180 1 -5.550526841089546 -6.895437091452283 -3.124588517759811 0 0 0
137 1 -0.5049868790294454 -9.321364051645396 -6.059806389705919 0 0 0
157 1 -2.444418243167835 -10.052350308901207 -4.6422994165046525 0 0 0
133 1 -1.7363578872541936 -7.826037593331693 -3.9451669378573833 0 0 0
200 1 -11.943708971474283 -6.671719197231907 -3.4367556541776683 0 0 0
78 1 -11.938595638402985 -4.396603606575399 -5.3285435968397845 0 0 0
77 1 -11.167481508883785 -4.422774544436052 -2.8865717392987804 0 0 0
83 1 -9.915136857922072 -6.056067632324392 -4.680443670772249 0 0 0
55 1 -7.442016000526566 -5.2874054511349 -3.6408459064409495 0 0 0
52 1 -9.350299167639335 -3.7409788484287123 -4.232085436122318 0 0 0
31 1 -5.371164486866823 -4.561615873908524 -4.83882784909178 0 0 0
153 1 -3.5756205056120525 -6.16688308597525 -4.2857696720413365 0 0 0
134 1 -1.1455850614630858 -5.565603945734425 -3.35426157744166 0 0 0
129 1 -2.8638941509413804 -3.813913230511023 -3.6940324332907366 0 0 0
73 1 -13.210403823011486 -2.8840076050548245 -3.2558118362935993 0 0 0
79 1 -11.253629363438819 -2.1108004763357133 -4.543301955573922 0 0 0
76 1 -13.172613067929303 -0.6693734451759017 -5.109544307730456 0 0 0
57 1 -7.376532269147962 -3.0990317985189684 -5.404985068874128 0 0 0
53 1 -8.668663953928236 -1.5220012623949017 -3.5197350574747777 0 0 0
28 1 -6.774507569723535 -2.9824913469141165 -2.9913188512542064 0 0 0
30 1 -6.7473460430954075 -0.8482063426761126 -4.7257508022044945 0 0 0
8 1 -4.715086876311425 -2.3614998850406383 -4.329090019418393 0 0 0
575 1 -6.425939455960304 -0.16450496997757647 -13.202729721267078 0 0 0
9 1 -0.8555140139979223 -3.145018705111827 -5.022518133688065 0 0 0
11 1 -2.885024321822856 -1.5782892847841534 -5.428031698644766 0 0 0
7 1 -2.3974157537071594 -1.6091571498483397 -3.0747369822136346 0 0 0
1 1 -0.24427737228655566 -0.9684608981692069 -4.506194638004011 0 0 0
234 1 -12.883783608373262 -13.647476515826106 -0.5852033455189645 0 0 0
222 1 -12.696629965596365 -11.370141630544486 -2.363959381445886 0 0 0
202 1 -10.903565435550213 -13.0512900276668 -1.9072652909159231 0 0 0
143 1 -6.322055983687067 -3.0779660919631535 -0.5459987125991308 0 0 0
203 1 -10.415243778303912 -10.666451421940293 -1.3040147204403212 0 0 0
201 1 -8.540866163967507 -12.192390496289546 -0.6193919367765588 0 0 0
29 1 -6.173356937682166 -0.7870709180132192 -2.20222563176757 0 0 0
177 1 -6.330273763230804 -11.458448860228987 -1.9066952683531095 0 0 0
176 1 -3.8776322682421593 -10.751721086744702 -0.7706458000375811 0 0 0
149 1 -4.552239211574243 -13.024889257029852 -1.4575883286714557 0 0 0
125 1 -1.7117013602105846 -1.7062820072452496 -0.6789378849893826 0 0 0
155 1 -2.591175051819965 -12.354400686306548 -2.7041037126560763 0 0 0
1026 1 -2.07901192617123 -12.440237201842768 -0.3310939339889991 0 0 0
196 1 -12.224490910538766 -8.964118208021901 -1.6730336592106028 0 0 0
18 1 -5.77153359371175 -0.12071603514477935 -10.779697496163966 0 0 0
179 1 -8.304204427487896 -9.936338915033675 -2.433395147982438 0 0 0
197 1 -9.601651310619891 -8.412733565578339 -0.605865764958617 0 0 0
173 1 -7.595809133880715 -7.74708566722507 -1.877161797272743 0 0 0
151 1 -3.7264012027476863 -8.57983281439863 -2.5966114986032878 0 0 0
178 1 -5.790680220540072 -9.15833658018903 -1.1720929161778209 0 0 0
126 1 -1.7330318311565538 -10.077179133476559 -2.0806961366492125 0 0 0
132 1 -1.1996453200765398 -7.809622613447683 -1.500968758859738 0 0 0
248 1 -3.18908193053775 -8.543242533358088 -0.17113529977465092 0 0 0
199 1 -11.494227489316001 -6.770248989960105 -1.0117238490438396 0 0 0
195 1 -13.340051077263672 -5.147138452273518 -1.5040859276628407 0 0 0
170 1 -10.793667861916258 -4.601116961994402 -0.5334364674508887 0 0 0
51 1 -8.851727728060684 -3.763270723130267 -1.7481117292845223 0 0 0
175 1 -9.479311765267495 -6.132225196081749 -2.342416151997094 0 0 0
174 1 -6.769563839898522 -5.399628600033903 -1.2307987867933718 0 0 0
6 1 -3.6435022100430796 -0.12238238082182384 -1.179302310042761 0 0 0
145 1 -5.0487707412713085 -6.953483957661465 -0.675898110475945 0 0 0
147 1 -4.8633779828215395 -4.732630011834043 -2.580056161933543 0 0 0
146 1 -2.4389639676898334 -4.026642579366376 -1.3808346550041062 0 0 0
251 1 -0.5457518687153922 -5.506535767964516 -0.9152567900119237 0 0 0
127 1 -2.9945034266116206 -6.339388039194231 -1.8944867993168515 0 0 0
75 1 -12.5565045749467 -0.6458510374096846 -2.6546270269124097 0 0 0
465 1 -11.916253731092118 -0.6715061069914299 -0.2202821217836366 0 0 0
48 1 -10.644940052904943 -2.2462415398236146 -2.23117783141992 0 0 0
337 1 -4.589321555296644 -10.076933812300224 -14.299745316139974 0 0 1
171 1 -7.713448316640296 -9.91015670928781 -0.027307925674387334 0 0 0
634 1 -6.603181291001188 -13.77405665010748 -0.06161121999086916 0 1 0
310 1 -0.14141653425935274 -8.631569847488716 -14.364724434274931 0 0 1
1284 1 -13.291802579513455 -2.138256774564521 -14.282594018132755 1 0 1
654 1 -7.563847657067034 -13.748443374052835 -4.915678913555153 0 1 0
610 1 -11.669539815363827 -0.06606968539036018 -8.713534274779402 0 0 0
389 1 -11.725910261294782 -11.341720969999741 2.34955174601526 0 0 0
850 1 -12.49293832792079 -13.727752884733167 1.8906158623092697 0 1 0
269 1 -10.408421591503235 -13.01668365798071 0.6565918355904188 0 0 0
849 1 -7.850544310414933 -12.317922822106112 1.770583566584241 0 1 0
267 1 -9.655281461233287 -10.67243987655592 1.278939357735231 0 0 0
253 1 -5.937053617375337 -11.409952180618165 0.5735671035505021 0 0 0
256 1 -4.134724327850762 -12.97189599888276 0.9957826671124863 0 0 0
259 1 -3.331468472646355 -10.780152672772603 1.6503870986057567 0 0 0
261 1 -1.4302222546257468 -12.503451396371453 2.064702806955184 0 0 0
252 1 -11.670035525330412 -9.046149811549544 0.7220386561531917 0 0 0
417 1 -12.829946843589301 -7.527188533298655 2.498280720274332 0 0 0
220 1 -13.481048130816973 -7.490770217575571 0.10609698330854656 0 0 0
421 1 -13.503919028201478 -9.84601240858824 1.919578725676205 0 0 0
254 1 -7.270435118503485 -9.9722123070511 2.4283379370339 0 0 0
416 1 -9.052858284665938 -8.401475748511935 1.8470513142678175 0 0 0
172 1 -7.092865570502677 -7.680783441671438 0.5589482066635476 0 0 0
144 1 -5.147849182410823 -9.222574939548178 1.1811728264614008 0 0 0
408 1 -2.5265259155076834 -8.461708470234546 2.2737086088758875 0 0 0
257 1 -0.6770517048074858 -7.892999642895232 0.8345924792664441 0 0 0
265 1 -0.97409757968496 -10.25041040217976 2.7183924582589487 0 0 0
993 1 -1.3604590748658776 -10.159537995652435 0.24004046073562435 0 0 0
447 1 -10.922727594786338 -6.869067879852223 1.367461786055527 0 0 0
1041 1 -12.759775275526229 -5.172483198546525 0.9055148700997329 1 0 0
464 1 -10.319595400817613 -4.558893005727581 1.9858283011520488 0 0 0
409 1 -8.298136679304191 -6.0211112833087315 2.375252980835148 0 0 0
460 1 -8.346449272771538 -3.8819502238382153 0.7493909811621862 0 0 0
264 1 -0.1818991169411639 -7.888291340464603 3.267628151706896 0 0 0
437 1 -4.599008104986941 -6.912352629844856 1.699012669325997 0 0 0
438 1 -6.348794790293615 -5.3175674464788045 1.2917261080292395 0 0 0
430 1 -3.9523041584956804 -4.620048308713791 2.275055347536169 0 0 0
25 1 -5.56868496468236 -0.8727262892524426 0.11960587676110634 0 0 0
245 1 -2.644380358891164 -6.156319649446112 0.406844563557728 0 0 0
243 1 -1.8749450174521964 -3.9061838358545273 1.132062639050595 0 0 0
262 1 -2.090084775556523 -6.1457068245830655 2.8090293722997597 0 0 0
121 1 -12.240386766113446 -2.963924254793479 1.5302330754137206 0 0 0
462 1 -11.515527499929718 -0.728434445846883 2.148108093204863 0 0 0
47 1 -10.23831181094344 -2.350945344027574 0.19763133275102085 0 0 0
456 1 -7.660259421661803 -1.5489574658988605 1.3309213296870581 0 0 0
461 1 -9.695397279769638 -2.2169115664158365 2.6165151139295855 0 0 0
431 1 -5.900944333294918 -2.999784937488684 1.7884373117299521 0 0 0
453 1 -5.092777455524214 -0.7587158949970938 2.4583960464948884 0 0 0
455 1 -3.622695416409236 -2.437051800450293 0.6992789940548629 0 0 0
901 1 -0.5079726424183804 -0.13934019566545786 13.400849322002403 0 0 0
452 1 -1.2322186559970234 -1.4821145225155057 1.8104997488373424 0 0 0
398 1 -8.907820384724904 -0.7577683347324466 14.328771917579862 0 0 0
355 1 -11.176586538342068 -11.423343692687574 4.8358014572551244 0 0 0
1776 1 -11.80940406442287 -13.682029014479934 4.17078751261556 1 1 0
297 1 -5.159659190911762 -1.6867895480674395 13.58146124791474 0 0 0
859 1 -9.848345960498857 -12.883101178021137 2.9323662814505607 0 1 0
268 1 -7.359711408324355 -12.202405938044429 4.247130473931767 0 0 0
384 1 -9.165054111012058 -10.674245912555397 3.6854652054520844 0 0 0
282 1 -9.300001500909538 -12.958947238905687 5.485585809304768 0 0 0
255 1 -5.3499386537559595 -11.529733337242044 2.951425336777733 0 0 0
275 1 -4.805238195140632 -11.627025792798696 5.189350780507995 0 0 0
903 1 -6.977810771961848 -0.10495090112087802 13.116015274055437 0 0 0
277 1 -3.452874126187112 -13.104884185844003 3.388121809731688 0 0 0
281 1 -1.158876975342526 -12.504509896591076 4.459110986049085 0 0 0
260 1 -2.8942071552502675 -10.87510032362246 4.084181594539244 0 0 0
1272 1 -13.145190898323733 -9.770068906874119 4.4453622117301475 1 0 0
385 1 -11.049653620727783 -9.159249932893761 3.0686561021008156 0 0 0
1280 1 -12.380024937797327 -7.529402933249783 4.950733769026252 1 0 0
387 1 -10.525390146608016 -9.210166966918521 5.55436425214309 0 0 0
386 1 -8.504709901821077 -8.352123235184793 4.260679501267708 0 0 0
377 1 -6.4232169757561355 -7.781017524730022 3.025104643376798 0 0 0
376 1 -6.617091276816909 -9.976146693399434 4.78545167370782 0 0 0
270 1 -4.698760260056504 -9.266807943601389 3.6184346464032924 0 0 0
368 1 -6.042653784721614 -7.737401940900393 5.395915432211586 0 0 0
399 1 -4.076062747953545 -7.065992743714006 4.192768213261575 0 0 0
247 1 -2.1519362501439563 -8.545720050543679 4.600593933464774 0 0 0
1400 1 -0.45396018712854236 -10.168202929588984 5.1354832670583 0 0 0
1777 1 -13.597605375575613 -12.029888630598013 3.7513047566169124 1 1 0
448 1 -12.15398101178958 -5.261078711648246 3.444480690676736 0 0 0
450 1 -13.589585692885466 -3.6040004092695312 5.291738483701776 0 0 0
418 1 -10.34405480408322 -6.835313464843786 3.8956170609226906 0 0 0
420 1 -11.695498897207592 -5.269039843475202 5.84144461617994 0 0 0
410 1 -7.929486589208678 -6.083287320445421 4.896133696472068 0 0 0
411 1 -9.666265156403945 -4.441614637122495 4.320676023585369 0 0 0
439 1 -7.8238812846651555 -3.7516644502382857 3.1122950383732277 0 0 0
402 1 -7.117432505927671 -3.8151175826590062 5.566409957992823 0 0 0
400 1 -5.885008015766191 -5.5273327620018 3.7071828602595804 0 0 0
391 1 -3.320268000960871 -4.745521895465563 4.774909335808358 0 0 0
423 1 -1.3524449094835127 -3.7756038925847815 3.354636124493366 0 0 0
250 1 -1.4784988597845263 -6.4010010506354025 5.141833787318857 0 0 0
440 1 -11.597922747412525 -2.9420239013470244 3.987616779826043 0 0 0
463 1 -10.903110162185055 -0.7134639456242482 4.5941437952950945 0 0 0
466 1 -13.50817916740358 -1.4146473035778957 3.4713721659144543 0 0 0
433 1 -9.082382192219793 -2.265923606646883 5.052897400586991 0 0 0
457 1 -7.235847804328601 -1.5138382423029775 3.6913111486223773 0 0 0
290 1 -2.949248919057464 -1.0316939534774328 12.140890509330037 0 0 0
432 1 -5.256051373449887 -3.2512679181919975 4.057237796473052 0 0 0
426 1 -4.647847117505652 -0.9310750685292408 4.9125682592889195 0 0 0
424 1 -3.304524502754848 -2.3211414840536886 3.0861101678167646 0 0 0
425 1 -2.6758580114393045 -2.4581553092672745 5.485296222576535 0 0 0
313 1 -0.6902158067305528 -1.6464561072272073 4.137391024233734 0 0 0
468 1 -9.434477670175589 -0.0477491404981194 0.7982928952455435 0 0 0
357 1 -13.254794610942147 -12.09993352861689 6.170927139366439 0 0 0
356 1 -10.67465374266191 -11.368945172250116 7.361933043404489 0 0 0
5 1 -2.973749340224053 -0.025879778232958728 1.2226187271220699 0 0 0
1821 1 -12.668952871554534 -12.034262788363154 8.626641178179076 1 1 0
348 1 -8.75530318955849 -12.991847957310025 7.833416938060795 0 0 0
349 1 -8.722228228061713 -10.807145120876884 5.972959464934894 0 0 0
271 1 -6.746819227596235 -12.3425942697882 6.527624779932312 0 0 0
274 1 -4.23440604403976 -11.658725418667611 7.802567421913723 0 0 0
276 1 -3.0204439861374492 -13.131777131438618 5.860851788178364 0 0 0
1402 1 -0.444346402819491 -12.43457459651108 6.958658735177339 0 0 0
286 1 -2.2936552587574752 -13.184436895545176 8.20245503164953 0 0 0
280 1 -2.462408146689212 -10.872783221392105 6.5264561935924394 0 0 0
1323 1 -12.584894022413673 -9.800159814686907 6.780684168255677 1 0 0
1279 1 -11.981608087308357 -7.554451260386748 7.481256957228906 1 0 0
351 1 -9.984993327934653 -9.120288849501797 8.06704666421876 0 0 0
378 1 -8.003741354034684 -8.471787181847294 6.727981401009567 0 0 0
258 1 -4.084612085697707 -9.259213752084335 5.98337186244021 0 0 0
273 1 -6.053733945405974 -10.08762541660894 7.215081088900481 0 0 0
360 1 -5.52325465947562 -7.606374908289248 7.914485234728458 0 0 0
278 1 -3.7335420620345143 -9.339157356839413 8.35623018513447 0 0 0
390 1 -3.509303514850771 -6.967738955867556 6.538541014866324 0 0 0
263 1 -1.6362007956018871 -8.574760571042855 7.0096688811444725 0 0 0
22 1 -2.9806833210711634 -3.307252820191321 13.897386673440172 0 0 -1
413 1 -12.98319213456202 -3.6669927622565073 7.684710497849116 0 0 0
381 1 -11.101789270559784 -5.204288836247546 8.124469586498419 0 0 0
379 1 -9.872381994916736 -6.894785602717948 6.122305994664382 0 0 0
412 1 -9.142542920123311 -4.609309129141309 6.789503683550953 0 0 0
370 1 -7.231275288618476 -6.238115813869948 7.197426311276535 0 0 0
403 1 -6.665933368753178 -3.8897063338774647 8.009928366610607 0 0 0
401 1 -5.431778445995047 -5.291473914054558 6.0153840128236435 0 0 0
392 1 -4.800733443747092 -5.4747118555112735 8.458426039409696 0 0 0
312 1 -0.8436726839521427 -3.9879899220428943 5.96006228942584 0 0 0
1369 1 -0.23890898471912436 -4.061426642895825 8.390533788361642 0 0 0
239 1 -1.044967658771176 -6.253132220506937 7.646853817613168 0 0 0
292 1 -2.8923986236752395 -4.651332482908828 7.095513090347138 0 0 0
442 1 -13.04283217924106 -1.2996841548763989 5.827908322446701 0 0 0
441 1 -11.024806426743012 -2.8889224956946364 6.383092488689579 0 0 0
444 1 -12.507471577600898 -1.3850752332466882 8.306041238134084 0 0 0
435 1 -10.423089256709074 -0.6897292607688854 7.1139763954094395 0 0 0
404 1 -8.397868571432454 -2.300847892456197 7.479066803976474 0 0 0
289 1 -1.1269315346365403 -2.5496479959051186 12.67692539661399 0 0 0
434 1 -6.652061461510359 -1.4662189770858163 6.072894485070835 0 0 0
393 1 -4.774309987080084 -3.0791494507922863 6.520644775353313 0 0 0
315 1 -3.9908892411504056 -0.8959097142006591 7.416937277116697 0 0 0
427 1 -6.010087117241017 -1.5784696670546978 8.553495148476143 0 0 0
320 1 -2.1291416691159277 -0.16343164036473645 6.2264827682912145 0 0 0
314 1 -2.1283429973171764 -2.544909421530292 7.922608422493214 0 0 0
311 1 -1.5171284642122718 -0.14160006571467143 8.6331803763072 0 0 0
397 1 -9.402163560111571 -0.634382573920302 11.982619778618902 0 0 0
331 1 -12.084957281884293 -12.06622118090806 11.071777547822288 0 0 0
454 1 -2.6066305555731812 -0.04167555744876594 3.6275997827069926 0 0 0
342 1 -8.16627874815081 -10.846079809898484 8.451152894649832 0 0 0
350 1 -10.131633635573344 -11.45916084919414 9.80712718635523 0 0 0
325 1 -8.295475429805066 -12.968311236675282 10.260612443573633 0 0 0
343 1 -7.647755072876344 -10.798520991515517 10.956774004919774 0 0 0
283 1 -6.307782668909631 -12.395649111688407 8.949253816152241 0 0 0
284 1 -3.788210345866368 -11.73744236324252 10.225099278361443 0 0 0
341 1 -5.799179023550741 -12.271711123259246 11.536009939640818 0 0 0
279 1 -1.825245593367267 -10.937627261286607 8.852463626845891 0 0 0
285 1 -1.9151288353228857 -13.159080964922452 10.596243335054803 0 0 0
241 1 -1.035703188719232 -10.968488552702535 11.209745498815101 0 0 0
358 1 -12.140245752267305 -9.852546237647896 9.201075724856937 0 0 0
388 1 -11.419493857233459 -7.665572299705243 9.873065040937943 0 0 0
353 1 -13.440178688063277 -8.225160087367723 11.165625237509298 0 0 0
344 1 -9.46385590889192 -9.2347201360626 10.49640691415174 0 0 0
369 1 -7.561688742003266 -8.444113544358862 9.161232233426263 0 0 0
367 1 -5.664325435222901 -10.164902493118477 9.525319462382209 0 0 0
361 1 -4.90058190948063 -7.750612050363377 10.28555497899035 0 0 0
359 1 -3.018776617528596 -9.371687052331199 10.70003527315239 0 0 0
240 1 -1.0282779732804386 -8.563048847542444 9.52790322902239 0 0 0
302 1 -2.9533798903723305 -7.067011504799145 8.983536988528266 0 0 0
301 1 -2.53617154333517 -7.042331598402006 11.437796487637884 0 0 0
1277 1 -13.191118668701716 -5.862769046826172 9.27936093141148 1 0 0
383 1 -12.566807302364314 -3.6720120782960137 10.135837632734683 0 0 0
382 1 -10.669182311547848 -5.290865892331697 10.546271964261715 0 0 0
380 1 -9.3777209158641 -6.834105649198333 8.62894118160125 0 0 0
371 1 -8.85225731559433 -6.838354670434158 11.003117286204803 0 0 0
372 1 -8.52687840412821 -4.5923723633737445 9.363203857708735 0 0 0
362 1 -6.770015487381709 -6.191569433563772 9.765457324277099 0 0 0
300 1 -4.330856785483364 -5.430248296059052 10.936655538732781 0 0 0
394 1 -6.116773531318866 -3.8691827408462682 10.458480366109049 0 0 0
291 1 -0.5086065323255724 -6.228922450178844 10.163457588122094 0 0 0
293 1 -2.3468931879296235 -4.75807034533557 9.755633111443663 0 0 0
443 1 -11.805050596214048 -1.470751247913043 10.708962476289225 0 0 0
414 1 -10.569035922351631 -2.9456714042541954 8.750333306941522 0 0 0
405 1 -10.056016463744239 -2.957856590709069 11.151073679706963 0 0 0
436 1 -9.903864715978372 -0.7002288636292295 9.47668403396136 0 0 0
395 1 -7.9177648364655555 -2.2879303258404065 9.972169745823079 0 0 0
295 1 -3.716236367430401 -3.256252178940331 11.554855987144949 0 0 0
294 1 -4.180531867017834 -3.206670523096511 8.962369251459739 0 0 0
296 1 -5.693534361946101 -1.6223064570626704 11.15898240571484 0 0 0
316 1 -3.600750081258763 -0.9762391937129387 9.855520508625057 0 0 0
906 1 -1.0083871493101189 -0.2454080313514364 11.029256733192964 0 0 0
288 1 -1.6946439019912027 -2.5841271663764687 10.292458091483544 0 0 0
329 1 -10.345474937155144 -13.764585083671836 11.644979561789617 0 0 0
332 1 -11.637376957210288 -12.139143719757696 13.462779342917143 0 0 0
333 1 -13.470737844185626 -10.526494882984808 12.88039874054993 0 0 0