LAMMPS data file via write_data, version 2 Aug 2023, timestep = 0, units = metal

1801 atoms
3 atom types

-14.251669603644759 14.251669603644759 xlo xhi
-13.821519279415286 13.821519279415286 ylo yhi
-13.345306458899977 13.345306458899977 zlo zhi

Masses

1 55.847
2 1.008
3 1.008

Atoms # atomic

995 1 -10.45671972530523 -11.532566415665361 -11.534209970835922 0 0 0
996 1 -12.126138351323693 -10.849754439896888 -9.875184428723058 0 0 0
997 1 -13.001818725491583 -10.506135675949885 -12.257064319682442 0 0 0
998 1 -11.445157924205246 -13.131395738348884 -9.49604690159877 0 0 0
1000 1 -12.455410093569578 -12.87654415754798 -11.813331215834541 0 0 0
1114 1 -10.978325336557894 -9.111085494102404 -11.872684377738555 0 0 0
987 1 -10.180310053875054 -9.322913981728462 -9.557461530778202 0 0 0
1596 1 -9.449996358721332 -11.81370218409958 -9.251376028131498 0 1 0
924 1 -13.76743852691701 -9.975353875988946 -8.224640081809225 0 0 0
923 1 -13.17761474097926 -12.37236499361417 -7.899698688429739 0 0 0
989 1 -12.855785904666112 -8.410798105124776 -10.251109235570436 0 0 0
1395 1 -14.024655400488314 -12.072505429457127 -10.315308544154526 1 0 0
1115 1 -13.779766153217366 -8.173839627878737 -12.532633719561955 0 0 0
1118 1 -8.836077061038075 -12.245439126336672 -13.080472441140213 0 0 0
988 1 -11.841687352729881 -8.598408893392762 -7.892013493102222 0 0 0
1119 1 -10.675952835745118 -13.73464303229371 13.270814086987816 0 0 -1
1112 1 -8.441058720177166 -10.148207173122545 -11.165850237269293 0 0 0
993 1 -7.71490205822509 -12.476019475951663 -10.86575036106189 0 0 0
1096 1 -3.730923256037224 -9.589715039124915 -10.115027233027792 0 0 0
1109 1 -4.005683557322598 -11.69385203651115 -12.254108790005144 0 0 0
1110 1 -5.738042232279865 -10.939373331642571 -10.645325414761215 0 0 0
1111 1 -6.693130362342595 -10.923595023546858 -12.902177888182976 0 0 0
1258 1 -4.810089652240739 -9.451375006770213 -12.488612260394211 0 0 0
985 1 -7.390149291938819 -10.266284631767011 -8.871807039631733 0 0 0
992 1 -6.8502783661478395 -12.733286644241886 -8.691583582220812 0 0 0
1097 1 -5.44719446026958 -8.88651333468557 -8.591415038149348 0 0 0
1117 1 -6.091636499402014 -13.256555072632999 -12.501032937742602 0 0 0
983 1 -4.776734199501417 -11.214120127466252 -8.203515281556339 0 0 0
1098 1 -6.4964466383212205 -8.692627916391995 -10.86728435953989 0 0 0
991 1 -5.0773892764498765 -13.297188592754985 -10.19672325487513 0 0 0
1259 1 -7.5816166478348315 -8.544428846202056 -13.285402636130407 0 0 0
990 1 -4.086106417926187 -13.503987806091425 -7.949321091176855 0 0 0
1108 1 -3.0933146672672276 -11.819893582636155 -9.94227023845351 0 0 0
1095 1 -2.8249737103152803 -9.844378367466527 -7.808086451779834 0 0 0
1107 1 -1.330056223018989 -12.731961915938864 -11.402850911697488 0 0 0
1257 1 -2.1299505411169317 -10.366196978156974 -11.926355041542314 0 0 0
1255 1 0.6723238563269067 -11.442154388734833 -11.041358860240885 0 0 0
1241 1 -0.05532201485813815 -9.032498537679066 -11.55389575380257 0 0 0
1094 1 -1.0961440045846587 -10.5118569555286 -9.565007343116568 0 0 0
1106 1 -0.3807143771372914 -12.894952306894513 -9.078301945759549 0 0 0
1092 1 1.6270404012599666 -11.570607243439042 -8.708316567094368 0 0 0
1240 1 0.8908644794101921 -9.163572028190302 -9.217280566583138 0 0 0
1415 1 1.6146458740730711 -9.82661799600385 -12.984747984339798 0 0 0
1254 1 2.318104541410234 -12.091277907691097 -12.692215564400342 0 0 0
1256 1 0.28841848398353775 -13.585166472148606 -12.986543494761857 0 0 0
1105 1 1.3175471383838104 -13.790776537854102 -10.72648569711375 0 0 0
1237 1 2.7348383486749146 -10.058311152789303 -10.77403566753755 0 0 0
1253 1 3.372261323616355 -12.448356236045598 -10.408488889994189 0 0 0
1251 1 6.0331940370878545 -13.245215756664681 -9.794557785101336 0 0 0
1252 1 5.038705606562571 -13.059912682324082 -12.130327905519325 0 0 0
1413 1 7.0390235791680436 -11.529812732978442 -11.723751293640362 0 0 0
1414 1 6.349111566884334 -9.255470240016587 -12.148016964324249 0 0 0
1400 1 7.347472211574582 -9.347565364763135 -9.752280482930452 0 0 0
1238 1 3.5256451465433134 -10.173573722369484 -8.444410013007051 0 0 0
1090 1 4.282797735663545 -12.574905815052329 -8.135999619981087 0 0 0
1216 1 5.5203528320184585 -8.645441892331652 -8.213141726533841 0 0 0
1402 1 5.3193189337368505 -10.93296810737058 -10.091207867795692 0 0 0
1417 1 4.320134944970478 -10.64054822401526 -12.462058387959361 0 0 0
1239 1 4.566480485355479 -8.553658522926103 -10.471766266454122 0 0 0
1235 1 8.044253853393903 -11.848506954332798 -9.524253176188141 0 0 0
1236 1 6.308400497814711 -10.981907553647382 -7.8735766171253365 0 0 0
1403 1 3.605580732341961 -8.381621175133105 -12.834464407299869 0 0 0
1088 1 6.991137887442443 -13.370022033387427 -7.375264477494209 0 0 0
1399 1 8.994675187574765 -10.185290012459156 -11.511644724854733 0 0 0
1397 1 11.596784279773358 -11.147876706334365 -10.884219856660835 0 0 0
1410 1 11.415542943887997 -13.389224782202563 -12.653161043821877 0 0 0
1411 1 9.62578605245516 -12.548983331957453 -11.12584063085607 0 0 0
1552 1 10.921554614230965 -8.883579357165699 -11.156264007045579 0 0 0
1233 1 10.593643083476872 -12.778514516386192 -8.826233406623068 0 0 0
1396 1 12.604732567880534 -11.289460613946956 -8.593554880685268 0 0 0
1398 1 9.950865057062577 -10.543975059282928 -9.233033136854107 0 0 0
1377 1 11.961790907064833 -8.902012286126876 -8.88859581843248 0 0 0
1551 1 12.74399238815978 -9.706915646088245 -12.73877492496147 0 0 0
1557 1 13.429298999227123 -11.890455837502245 -12.578009932627968 0 0 0
1409 1 12.482240229106436 -13.420265287698964 -10.46161933358984 0 0 0
1558 1 10.713630144640858 -11.021217507023096 -13.226374470765338 0 0 0
1550 1 13.62678951466207 -9.79311095032753 -10.451853360452493 0 0 0
1231 1 13.364711138212686 -13.722481913968426 -8.298213860785497 0 0 0
1085 1 -11.502451993966663 -4.634546105173582 -10.04695300613151 0 0 0
1100 1 -9.146536736489704 -7.6962307344498795 -11.472679759193197 0 0 0
1102 1 -11.878801980552241 -6.779106164384002 -12.266967731690922 0 0 0
1103 1 -13.443607099978719 -5.9863948036462515 -10.5821309449856 0 0 0
1248 1 -9.938462083065449 -5.345368025355029 -11.755382570126592 0 0 0
1086 1 -13.156531108704165 -3.9963439167289927 -8.540743560747227 0 0 0
1101 1 -10.864337906244804 -7.037900879347608 -9.969214300923671 0 0 0
1227 1 -9.466710776699541 -3.2422279342114297 -9.92734598328856 0 0 0
1249 1 -12.485075728793216 -4.536212673420042 -12.536467479284207 0 0 0
1228 1 -10.528070814624407 -2.9761517368346357 -12.123484486054537 0 0 0
977 1 -12.485871616065428 -6.3202171470617845 -8.121561747999053 0 0 0
1084 1 -10.417765273530456 -4.811455661292419 -7.988007980130751 0 0 0
1083 1 -8.77050316579914 -5.4480602843742165 -9.534662906075456 0 0 0
1099 1 -8.240930814768852 -7.918875209583788 -9.231805159413593 0 0 0
1226 1 -7.794570996690034 -3.9263078634808775 -11.481297729183927 0 0 0
1224 1 -5.201019026836233 -4.912187795688025 -10.773648546085152 0 0 0
1244 1 -4.431995311402154 -7.239073006683151 -10.546531753321641 0 0 0
1245 1 -5.524663911326391 -7.180979717405669 -12.713374900908844 0 0 0
1246 1 -7.179530203761955 -6.325793424307326 -11.145764856832857 0 0 0
1081 1 -6.147622848673201 -6.642177634888241 -8.956302843034049 0 0 0
1223 1 -4.278912577499499 -5.237535371380359 -8.586643588708352 0 0 0
1225 1 -6.904612029130597 -4.1494862796630905 -9.254335629035248 0 0 0
1389 1 -4.1215220258215375 -3.3399714236542213 -12.911815306030245 0 0 0
1079 1 -3.4868373597973967 -7.61297939991783 -8.382201090424306 0 0 0
1407 1 -3.503257669789722 -5.65033903313393 -12.583880187380988 0 0 0
1408 1 -6.128279409958717 -4.831109177854213 -12.976930452111942 0 0 0
1202 1 -4.852933288965046 -2.713106042530823 -9.001312027909787 0 0 0
1388 1 -3.217588547821796 -3.4962947887318645 -10.66279188714943 0 0 0
1242 1 -1.727415800851606 -8.226613366212192 -10.001397552463224 0 0 0
1243 1 -2.747587408532029 -8.033657614058452 -12.263930423370429 0 0 0
1222 1 -2.5749449702525826 -5.7683555058376434 -10.363744658084812 0 0 0
1386 1 -0.5501126698601126 -4.589648294737737 -9.986900674053583 0 0 0
1387 1 -1.5050031955118417 -4.111633889757433 -12.161923794270836 0 0 0
1406 1 -0.7547936809290654 -6.741431331293888 -11.824312645663374 0 0 0
1385 1 1.3411224490776146 -5.357518012234504 -11.395217191226571 0 0 0
1404 1 1.8137175652375799 -7.761613586032998 -11.199460495470346 0 0 0
1220 1 0.11030220439200633 -6.793255556176024 -9.532793321255948 0 0 0
1200 1 -2.2913510099093912 -3.722763538609584 -8.325802747918956 0 0 0
1364 1 1.5470375342437102 -3.14780894421472 -9.616741859886996 0 0 0
1547 1 0.5938231019728235 -2.89748722369338 -11.718988525861022 0 0 0
1384 1 2.233874870590972 -5.3342325053419195 -9.206543340747555 0 0 0
1221 1 -1.6345961835459502 -6.106548799645554 -7.936790614615466 0 0 0
1401 1 5.690001357554523 -7.035983835888678 -12.434434641637374 0 0 0
1218 1 2.83738729998346 -7.771458872231589 -8.895264846896112 0 0 0
1381 1 6.604633342785272 -7.074610779792243 -10.136409339431815 0 0 0
1383 1 3.9091076815772485 -6.2073348571546125 -10.832505816255146 0 0 0
1543 1 5.8647294345306005 -4.701971018049672 -10.556190509930587 0 0 0
1544 1 4.905688498639959 -4.685377297718805 -12.792327164553056 0 0 0
1555 1 7.45326103997674 -5.414292363748524 -12.16042041869389 0 0 0
1545 1 3.1968388203735163 -3.9475182966641214 -11.21292339217149 0 0 0
1362 1 4.191166430630998 -3.9950121580241476 -8.94168780196258 0 0 0
1382 1 4.797349360352682 -6.326437344091961 -8.511846007565962 0 0 0
1360 1 6.727914768067853 -5.015032277221016 -8.207253668217517 0 0 0
1671 1 7.021730269343719 -3.1437659224352075 -12.521969922164937 0 0 0
1523 1 7.950129657218737 -3.3510601792369616 -10.238434619302831 0 0 0
1556 1 2.9133728870805395 -6.0514136888558845 -13.237591662717575 0 0 0
1380 1 7.5944312676784715 -7.304679181044811 -7.907922952254374 0 0 0
1379 1 9.35150764978514 -8.010554369597571 -9.510723262605868 0 0 0
1554 1 8.355985891723483 -7.770102756235507 -11.839533412510471 0 0 0
1541 1 8.504882764799584 -5.589767274421012 -9.881592644942884 0 0 0
1542 1 9.598851685222863 -4.053328123212223 -11.782845676697354 0 0 0
1521 1 10.53822066354797 -4.212360854124595 -9.63046925968494 0 0 0
1540 1 10.294056837331349 -6.451718870541138 -11.415171666523866 0 0 0
1668 1 12.314481092777479 -5.0654587248901475 -11.146194996909536 0 0 0
1538 1 13.0199886109365 -7.5252797147713935 -10.778714890498172 0 0 0
1539 1 11.308253852134753 -6.5729540084931575 -9.158500301089987 0 0 0
1519 1 13.2487890202798 -5.196485217219525 -8.839523523947985 0 0 0
1656 1 12.528665053653098 -2.856615932785843 -9.205355990883502 0 0 0
1669 1 13.358842555481454 -3.5464628134888763 -13.242374105912345 0 0 0
1522 1 8.889728095893654 -3.4887768637069403 -7.9570493517415075 0 0 0
1673 1 11.987176524222521 -7.3074682076376565 -13.044930888203302 0 0 0
1657 1 11.705829758696593 -2.638553785842154 -11.45177840849377 0 0 0
1748 1 -14.177181663473839 -3.7776006679282634 -10.810586829384679 1 0 0
1537 1 13.99420372536209 -7.621922923831623 -8.547503755898378 0 0 0
1667 1 14.039626176533487 -5.913025623402543 -13.007418677917354 0 0 0
1063 1 -11.219648443864367 -2.5104386021764746 -8.375001486386846 0 0 0
1206 1 -10.060166366107286 -0.938923755287119 -10.240617713058192 0 0 0
1229 1 -12.207381034616837 -2.284947660803539 -10.543097146623118 0 0 0
1208 1 -12.884451969240946 0.03686323467849384 -10.995907191875851 0 0 0
1373 1 -10.98436916081553 1.4726375599262322 -10.547004723793078 0 0 0
1393 1 -11.152003502478399 -0.5796511223852416 -12.39704019752681 0 0 0
1207 1 -12.002846817773383 -0.08609738955373203 -8.701965876665069 0 0 0
1187 1 -12.57091139462648 2.3486876889766197 -8.837128054305497 0 0 0
1185 1 -10.036218365523633 1.209520676954984 -8.28554322451155 0 0 0
1372 1 -9.163363048825456 0.6866117440147281 -12.053570917571186 0 0 0
1374 1 -11.836039583678843 1.723414305554563 -12.859707257810946 0 0 0
1230 1 -13.190561412022642 -2.1453864319682374 -12.791369041957134 0 0 0
1375 1 -13.599199846599431 2.379871454383407 -11.040413939105918 0 0 0
1065 1 -13.92211601004022 -1.686409861261449 -8.98210494347861 0 0 0
1394 1 -13.840166336426337 0.356457008636351 -13.205150456998956 0 0 0
1205 1 -9.119535679281505 -1.119535837677354 -8.018420486861341 0 0 0
1392 1 -8.500291839627085 -1.7072544813616073 -11.925634576560515 0 0 0
1390 1 -5.845733064522966 -2.5012462459998126 -11.282436468368148 0 0 0
1371 1 -8.20079614242518 0.530821828376622 -9.816628192535473 0 0 0
1368 1 -3.915451704727106 -1.1762761086133704 -11.005782894088892 0 0 0
1370 1 -6.424189062231602 -0.25302107463636503 -11.546773465195551 0 0 0
1532 1 -4.509907055242108 1.286033089846221 -11.220192240969586 0 0 0
1534 1 -7.15306154772056 2.0648656084075956 -11.878799034016895 0 0 0
1204 1 -7.50972348985022 -1.7879075683653003 -9.626879580776967 0 0 0
1369 1 -5.573908105220363 -0.44872813388725064 -9.233887706104198 0 0 0
1346 1 -3.587697958166359 0.9415961210560582 -8.919301685514236 0 0 0
1348 1 -6.30723787940394 2.011509333088945 -9.588527877175192 0 0 0
1549 1 -4.8683621286435255 -1.02530185152502 -13.332724048914212 0 0 0
1349 1 -7.956558640865495 2.631349808718136 -7.907693915762988 0 0 0
1666 1 -3.591153717413782 2.896017393806483 -13.139908410548223 0 0 0
1367 1 -2.9424988041434865 -1.3041870551532195 -8.573195495761858 0 0 0
1531 1 -2.978255594694554 0.5682145792527358 -13.070630648308864 0 0 0
1366 1 -1.2229018689883713 -2.1714068670700986 -10.173548354525192 0 0 0
1548 1 -2.2081956193095245 -1.8481764671674465 -12.458040238183951 0 0 0
1528 1 0.8255153564012492 -0.7871687976125408 -9.902006907897608 0 0 0
1530 1 -1.9327354901068485 0.20755118820125773 -10.656599640247666 0 0 0
1507 1 -0.1025718792544783 1.5888815222204613 -10.222797715139485 0 0 0
1529 1 -0.25839339885149215 -0.5504985805064386 -12.267735494077426 0 0 0
1664 1 1.796767225748484 0.9809974974908471 -11.776069188052473 0 0 0
1665 1 -1.0670028999316479 1.858281050941061 -12.472871274534565 0 0 0
1344 1 -0.8645355304708637 0.09074587862123451 -8.43134308828034 0 0 0
1508 1 -1.6779444989715895 2.3664787538787397 -8.537444072679323 0 0 0
1488 1 -2.572114511258997 2.6564998020652 -10.831834248217406 0 0 0
1506 1 0.9277446947928407 1.4951163038553776 -8.003793404890894 0 0 0
1365 1 -0.268469995537469 -2.4306193629048973 -7.975804338211289 0 0 0
1527 1 2.572913400730842 -1.3644316432478671 -11.618599306378753 0 0 0
1524 1 6.214710286712025 -2.5095024832840434 -8.558512676874367 0 0 0
1525 1 5.106398496837977 -2.5006652005962646 -10.783614708696177 0 0 0
1505 1 2.6454361728024818 0.6811821208687334 -9.49559775415904 0 0 0
1661 1 6.266080014782377 -0.9009379551950101 -12.740961534562967 0 0 0
1660 1 7.150638762305304 -1.0584651392226956 -10.41642445433949 0 0 0
1644 1 6.5871049251597835 1.2906789104891487 -10.758806105947064 0 0 0
1662 1 4.470562857608572 -0.12491967481714106 -11.098212657408673 0 0 0
1645 1 4.761533449414403 2.0147313338323833 -9.173890360054958 0 0 0
1646 1 3.670006271048118 2.168793344375308 -11.386199407710214 0 0 0
1526 1 3.4968256436483163 -1.6960855148991225 -9.218780115353855 0 0 0
1503 1 5.36376026677541 -0.3571991027528991 -8.810677449236081 0 0 0
1643 1 7.349200514836491 1.0923719772906377 -8.52362527566109 0 0 0
1747 1 5.5475884012109 1.3815858890880435 -13.108695734187004 0 0 0
1672 1 4.303082685271269 -2.3112196911908214 -13.139963310365596 0 0 0
1737 1 7.553722329526716 2.906954650273965 -12.756833033900868 0 0 0
1746 1 8.236179340893818 0.5406636178359392 -12.407810961630492 0 0 0
1501 1 8.179659964600306 -1.203163449983414 -8.193244907315206 0 0 0
1670 1 8.987598399059928 -1.7166889205690659 -12.19122027016884 0 0 0
1640 1 11.933801880209943 -0.35072033072748 -9.58090160061194 0 0 0
1659 1 10.931359579330179 -0.3810995850749652 -11.807183090575501 0 0 0
1642 1 9.279148928083897 0.5257694491569769 -10.152069424788767 0 0 0
1745 1 10.182206678992069 2.074721101773111 -12.042415480059576 0 0 0
1733 1 12.981345176346368 0.99347389218822 -11.62864901917865 0 0 0
1735 1 11.295362811019343 1.873405830970409 -9.870728434765105 0 0 0
1499 1 9.8557832713671 -1.8176955993354014 -9.787279339419577 0 0 0
1622 1 9.396808165033617 2.5627450779978016 -8.13793512899565 0 0 0
1641 1 10.239775670996481 0.29299768232878876 -7.915961229332461 0 0 0
1736 1 8.58928410221443 2.710652420733952 -10.396832938276235 0 0 0
1743 1 13.529428917332206 -1.2888902578508148 -11.153688818706906 0 0 0
1732 1 13.96507146925378 0.9734231531895592 -9.319283010827116 0 0 0
1350 1 -8.830288614529671 2.8145217987178963 -10.146690865665946 0 0 0
1535 1 -9.877261619118215 3.1303803760385573 -12.4148785313088 0 0 0
1352 1 -11.604242608108596 3.8869895026381247 -10.82712940865405 0 0 0
1514 1 -9.620288229488597 5.376973028822787 -10.634288229885353 0 0 0
1515 1 -10.728966087781506 5.266254852095395 -12.738819047197145 0 0 0
1516 1 -12.37378826876854 6.229008386103933 -11.202263064333621 0 0 0
1494 1 -10.44451287176281 7.513640475138411 -10.9466839004697 0 0 0
1330 1 -11.213157834896109 6.090483744104356 -8.89892181564753 0 0 0
1351 1 -10.568238665228346 3.739427271973492 -8.652318100872192 0 0 0
1353 1 -13.30179432522062 4.667391855906713 -9.208998993580995 0 0 0
1493 1 -9.318016695106586 7.502742765730842 -8.69272312105718 0 0 0
1636 1 -11.37000454832142 7.786320386031944 -13.151920295108837 0 0 0
1536 1 -12.770627296209803 3.9890304914370898 -13.114551610850262 0 0 0
1332 1 -13.935529121471637 6.8546602231011295 -9.548201509382686 0 0 0
1495 1 -11.98112287266649 8.309293456956032 -9.316355315142939 0 0 0
1637 1 -13.095338756618723 8.568003659443116 -11.42755485435453 0 0 0
1328 1 -8.56754922594428 5.097222853462069 -8.390303239985537 0 0 0
1654 1 -8.674928066560154 6.916767391339176 -12.589465913887931 0 0 0
1511 1 -5.21953003600229 3.573379137992754 -11.577130677977175 0 0 0
1512 1 -6.9588922766140495 4.396924133572602 -10.095349805102341 0 0 0
1513 1 -7.960805127074431 4.515883005381765 -12.225986665286683 0 0 0
1653 1 -4.945677440740123 5.773710498093196 -9.541858926454294 0 0 0
1492 1 -7.681919412985776 6.756676245109626 -10.324654780292947 0 0 0
1510 1 -4.193493115867929 3.354919103254735 -9.281053482585257 0 0 0
1651 1 -3.9075738653621492 7.387606184767064 -11.485619434597682 0 0 0
51 1 -5.924461724096879 5.949445222610761 -11.904844752432938 0 0 1
1633 1 -5.698536397130889 8.104884707559739 -9.771842645191391 0 0 0
1634 1 -6.661147042909762 8.317199761223184 -12.135212075405418 0 0 0
1509 1 -3.283556615421155 5.029306087991673 -11.113767418374058 0 0 0
1491 1 -6.678372908950597 6.509283297759962 -8.091002235830318 0 0 0
1631 1 -2.9821726393644745 7.185618289134572 -9.154704815787678 0 0 0
1647 1 1.9267445704902624 2.985765066591844 -9.813621485580585 0 0 0
1648 1 1.0276579160907993 3.3023080998247902 -12.065123593012324 0 0 0
1490 1 -2.196344064304892 4.7899578184597456 -8.713750511582539 0 0 0
1630 1 -1.164209078681333 6.4660854515666255 -10.722695072558665 0 0 0
1650 1 -1.5360231134918862 4.417244560374494 -12.756360635081126 0 0 0
1628 1 1.525507200101428 5.315077925413105 -10.2224375412201 0 0 0
1649 1 -0.5485231364372805 4.100471983461896 -10.468640186026395 0 0 0
1741 1 0.4744602835949365 5.650011139029671 -12.446663081543408 0 0 0
1726 1 0.7985218685286064 7.708311422922206 -10.506933747946729 0 0 0
1629 1 -0.17062100168100613 6.2016511131711685 -8.469459911843153 0 0 0
1606 1 1.7953887035606453 7.6783775095265145 -8.17466595826461 0 0 0
1486 1 0.3121092537816441 3.84321662207733 -8.167863673552699 0 0 0
1727 1 -0.2645588388754234 8.000182789601082 -12.858064306781513 0 0 0
30 1 -2.2881688135730407 6.649994321334658 -13.139527436185633 0 0 1
1627 1 2.407360206494465 5.2490076666760555 -7.798313768728416 0 0 0
1725 1 2.5375333959207165 7.056614026355456 -12.161400345865136 0 0 0
1626 1 4.134014931975107 4.5591346533086625 -9.382748910848013 0 0 0
1722 1 6.078778700027927 5.953657282783675 -9.064350872511564 0 0 0
1723 1 5.0728128780229245 5.982864528457158 -11.416363067152199 0 0 0
1738 1 5.813275611737533 3.5489586393517296 -11.209812431747338 0 0 0
1740 1 3.1786060623020784 4.732929301409092 -11.823127486863926 0 0 0
1624 1 6.801683765303649 3.495540834395234 -8.80194449032556 0 0 0
1724 1 3.372633173016405 6.833708750740433 -9.784415789507012 0 0 0
1779 1 7.09655919912438 7.406642250754446 -11.119975102617357 0 0 0
1721 1 7.78139238591252 4.9630179276446444 -10.8786163837215 0 0 0
1706 1 5.46279997157753 8.222021221949289 -9.521146300327093 0 0 0
1786 1 6.74078081074394 5.222253746059311 -13.138947596890151 0 0 0
1704 1 8.197062799217173 7.09972711446334 -8.910111421506597 0 0 0
43 1 5.966389845381483 7.635011111474258 -13.183813030380218 0 0 1
62 1 4.807555399248001 3.655187465536228 13.211056053447003 0 0 0
1784 1 13.286204237755696 3.2756300099238356 -9.521223932771735 0 0 0
76 1 12.24141134546291 3.3468949520522653 -11.793518214495668 -1 0 1
1734 1 10.456351263155474 4.150108884383647 -10.077648927754053 0 0 0
1719 1 8.700446268734423 6.751958519726001 -12.771949783819624 0 0 0
1776 1 11.433480059865259 5.733613869184479 -12.207066323035173 0 0 0
1785 1 9.501360677927165 4.368198358817457 -12.370989523856887 0 0 0
1775 1 12.455577913596384 5.462497776588888 -10.013359142215881 0 0 0
1720 1 8.893096620533855 4.932152227308579 -8.520812869900713 0 0 0
1702 1 9.914511307100428 6.453794319189553 -10.522335453953527 0 0 0
1689 1 10.927946629407812 6.253510413765229 -8.261715627326652 0 0 0
1764 1 11.846612881113584 7.765989856565065 -10.279781276877902 0 0 0
1798 1 10.698675261458694 8.204874127315433 -12.494458474448432 0 0 0
1517 1 13.430223118070936 7.051102199325461 -11.911013626526167 -1 0 0
1763 1 12.843884517528648 7.67303780063922 -8.09543065359738 0 0 0
1718 1 11.599623916110636 3.9428185643227156 -7.9118183801778805 0 0 0
1765 1 10.00225015937776 8.551701517128075 -8.601828201199641 0 0 0
1354 1 14.244060535312348 4.841735604597046 -11.509904325827472 -1 0 0
999 1 -9.756042109692263 13.74623035288356 -11.18326669425769 0 -1 0
1474 1 -12.664303233894593 10.75455334509615 -9.47435072212973 0 0 0
1616 1 -11.786419929736706 12.294367088125012 -11.578193257081152 0 0 0
1614 1 -11.05806310430549 10.023941688550662 -11.166383804988032 0 0 0
1618 1 -13.4957803355146 13.056300326123255 -9.797448199280701 0 0 0
1472 1 -10.003073499380715 9.731250452569112 -8.801984168560764 0 0 0
1615 1 -10.718029207709382 12.099563802568676 -9.19922584317166 0 0 0
34 1 -9.364275386591316 9.203317555330473 -12.903748251081606 0 0 1
1787 1 -13.8073046485566 10.906852460498401 -11.791208967786043 1 0 0
1716 1 -9.048476173276672 11.432627535899814 -10.963524796690727 0 0 0
1731 1 -9.921969621946612 11.600204482612606 -13.209331603634505 0 0 0
1613 1 -8.7618920928063 13.498190415355692 -8.863282505877429 0 0 0
1635 1 -8.386335767800821 9.133642383027171 -10.604297991167538 0 0 0
1116 1 -3.452463684606851 13.426761481988846 -11.674820576904215 0 -1 0
1470 1 -7.352775169534244 8.90886503442785 -8.254744168983372 0 0 0
1632 1 -4.728406979642928 9.690057258560406 -11.954348067294973 0 0 0
15 1 -8.04332840900954 12.986666032202288 -12.812962561616214 0 0 1
1612 1 -8.071993409817793 11.229650405356361 -8.686827161308969 0 0 0
1713 1 -4.450641157341082 11.962954362203876 -9.823879224990577 0 0 0
1714 1 -5.364740383035768 12.0704315642971 -12.18480418811086 0 0 0
1715 1 -7.069414993594066 12.88291565952325 -10.483950957174168 0 0 0
1729 1 -6.353427007310723 10.465292779934673 -10.34161906759226 0 0 0
1730 1 -7.180195102235629 10.722998048421347 -12.617061604588292 0 0 0
1610 1 -3.7607795137923326 9.567316026774686 -9.555552970635665 0 0 0
1594 1 -6.075715112355692 12.639949362349194 -8.183519107170559 0 0 0
1611 1 -5.452745026979548 10.164345963064504 -8.00430445165694 0 0 0
1104 1 2.349743979605341 13.64984386362861 -8.545385140299942 0 -1 0
1608 1 -0.9723576964284035 8.630085752933278 -8.870353725094294 0 0 0
1728 1 -1.9385535030477516 8.703411426037603 -11.120728968649598 0 0 0
1712 1 -2.7435838509283066 11.20348029836296 -11.583430958630169 0 0 0
1710 1 -0.042261675138801635 10.16470692193994 -10.754205390772844 0 0 0
1773 1 -0.6502525281500304 12.511548471479896 -11.061827696253134 0 0 0
1699 1 -2.3615525288844488 13.323933266746542 -9.445226575843888 0 0 0
1711 1 -1.7796457894261035 10.825918337482056 -9.19951947951883 0 0 0
1697 1 0.23056358713486524 12.226350417717436 -8.79271146546298 0 0 0
1709 1 1.014595554936113 9.930109776360505 -8.612805184394347 0 0 0
1771 1 0.9892891337680432 11.77286489430154 -12.639912210439203 0 0 0
1770 1 1.9675793677661222 11.42374830260018 -10.424993872901606 0 0 0
1782 1 1.7461351499885946 9.43813277167247 -12.423743473624219 0 0 0
1783 1 -0.9614765227470841 10.40806381511947 -12.943997686152764 0 0 0
1708 1 2.800684135371297 9.062380859846519 -10.18099357690441 0 0 0
1781 1 3.723082400263012 10.908278668513708 -12.009418807798784 0 0 0
1412 1 7.762047555980645 13.681169657833776 -11.432504367978169 0 -1 0
1797 1 3.025006668667336 13.187485546651944 -12.369260845250171 0 0 0
1762 1 4.0504128312909575 12.90028323454405 -10.152197259681124 0 0 0
1769 1 4.570777834354507 10.686424023217663 -9.76880520376405 0 0 0
1759 1 6.516990421488861 12.081075994508689 -9.33071416996745 0 0 0
1768 1 6.276759105101915 9.806188200278404 -11.379876821216559 0 0 0
1767 1 7.433930381869187 9.615499355858647 -9.12698541318462 0 0 0
1761 1 5.784827693710836 12.25902977349484 -11.817767472926699 0 0 0
1695 1 2.96450176360697 11.251587735246241 -8.230966864373496 0 0 0
1707 1 3.7981890782836896 8.984136012433789 -7.9161339513345315 0 0 0
1760 1 4.886362311104451 12.762655510853078 -7.745646325428377 0 0 0
1799 1 8.03672211054142 9.07217690901326 -13.019543966664868 0 0 0
1795 1 8.38306302056832 11.274859090145407 -11.020559841168263 0 0 0
1250 1 8.591919096440018 13.293954796378005 -9.167026086834657 0 -1 0
1766 1 9.024975760133247 8.889381687238389 -10.8309880772508 0 0 0
1757 1 9.31803132405516 10.97884838569689 -8.845501072921905 0 0 0
1789 1 12.101039432361882 11.89327748973677 -12.594153553567404 0 0 0
1792 1 12.797189137812873 9.508395652223191 -12.08269504955775 0 0 0
1793 1 11.073595790607497 10.203557685158293 -10.527210453802962 0 0 0
1790 1 10.49692053675095 12.718243184798796 -10.81379302625063 0 0 0
1752 1 11.342838200147499 12.563110922726912 -8.692309461153133 0 0 0
22 1 10.075114286966242 10.596710231719909 -12.727926858126741 0 0 1
1788 1 12.952182632345414 11.726489231407607 -10.327406703766128 0 0 0
1755 1 12.04300260599137 10.00157233938287 -8.32214060511787 0 0 0
3 1 9.395280557705734 12.826660723261726 -13.226240893731259 0 0 1
1496 1 13.786606966332739 9.403053889894439 -9.882499019202344 -1 0 0
1617 1 14.113142910026008 13.310995546213244 -12.218560248296475 -1 0 0
1475 1 14.008112419971424 11.435261091718212 -7.949028987835489 -1 0 0
994 1 -11.150768753227425 -10.944811917592432 -7.596334598062531 0 0 0
921 1 -10.42299128767018 -13.346667475451682 -7.2961908989737765 0 0 0
882 1 -11.239749280805027 -12.750587671472653 -3.183505752964779 0 0 0
918 1 -10.141902420680145 -11.147695426364239 -5.462204077780902 0 0 0
920 1 -12.843826940898806 -10.15745379627066 -5.966793470949211 0 0 0
922 1 -12.177452161377673 -12.458521538933722 -5.647520852734469 0 0 0
986 1 -9.121101044963186 -9.531375903704783 -7.269371285879555 0 0 0
876 1 -9.208388762043445 -11.20756732383378 -3.0551043061353553 0 0 0
878 1 -11.8533062994227 -10.467041538183366 -3.7212170327461003 0 0 0
909 1 -9.85359811655717 -8.9312673901191 -3.4083617830119888 0 0 0
1209 1 -13.944466329408352 -11.584293872830521 -4.0270428890493815 1 0 0
910 1 -10.860196457524449 -8.869442547860984 -5.665303228769414 0 0 0
880 1 -9.494971528571613 -13.553861615426516 -4.987593142293875 0 0 0
917 1 -8.522931264305987 -11.98681059085267 -7.090473193499427 0 0 0
908 1 -8.230437054368569 -9.725627559459664 -4.828413503552616 0 0 0
916 1 -7.525443100469958 -12.123769127773473 -4.628135810538415 0 0 0
906 1 -5.551766617126669 -10.627608977252912 -4.4119571928072805 0 0 0
915 1 -5.859545402666269 -12.768864489755682 -6.362338323777358 0 0 0
982 1 -3.8065048041873837 -11.454036979987777 -5.97295839537776 0 0 0
984 1 -6.5323163632363626 -10.507425782987038 -6.628767755900423 0 0 0
913 1 -4.770754038986 -13.015373234430838 -4.035024051405683 0 0 0
971 1 -4.529074322764213 -9.09972008235703 -6.164492504424462 0 0 0
970 1 -3.599175895555174 -9.175364081558737 -4.051219797278176 0 0 0
907 1 -7.143335422203772 -9.768678312575691 -2.740580052452213 0 0 0
893 1 -5.236695290849013 -8.377619863191523 -2.3289811099904973 0 0 0
914 1 -6.515469973364105 -12.26167474069424 -2.411143686016862 0 0 0
1433 1 -8.6243959571802 -13.633289212934667 -2.6963234448107176 0 1 0
972 1 -6.235933606473505 -8.29127847765319 -4.580056934699266 0 0 0
1578 1 -3.114854937721679 -13.783727240467034 -5.727430795557762 0 1 0
905 1 -4.562138620391364 -10.775847426822775 -2.167377188614676 0 0 0
981 1 -2.102622808494244 -12.12384134597463 -7.571928720390884 0 0 0
1077 1 -0.8164010231463994 -8.45693460976533 -7.54067276215521 0 0 0
904 1 -2.8525334423596664 -11.626268567214936 -3.752806010041086 0 0 0
969 1 -1.8109383290137107 -10.009240241185969 -5.454650136001963 0 0 0
980 1 -1.2528662932839225 -12.346970126922468 -5.227230793381056 0 0 0
1093 1 -0.1675079033200877 -10.77607344907312 -7.238055437105061 0 0 0
967 1 0.8614727437674361 -10.92467925508952 -4.870100840125046 0 0 0
978 1 1.4715215691304628 -13.254133138169252 -4.611951309068319 0 0 0
979 1 0.5143490605773469 -13.304288676219393 -6.886719777951736 0 0 0
968 1 -0.8800191987070356 -10.236399754626312 -3.2476224280745214 0 0 0
951 1 1.0767212343924442 -8.901879206063992 -2.972547700991205 0 0 0
966 1 1.788843718826536 -11.300893722448032 -2.5735827773389417 0 0 0
902 1 -0.16392433259088612 -12.63174905084273 -2.941687230933585 0 0 0
1076 1 0.1578692281369083 -8.490247546736644 -5.331985234791491 0 0 0
1075 1 1.7768344111713805 -9.469244268481548 -6.84099011269646 0 0 0
1565 1 2.528325730842921 -13.651794601820578 -2.3197034195097874 0 1 0