LAMMPS data file via write_data, version 2 Aug 2023, timestep = 0, units = metal

1862 atoms
3 atom types

-14.286860867785183 14.286860867785183 xlo xhi
-13.992873884924268 13.992873884924268 ylo yhi
-13.737931601248631 13.737931601248631 zlo zhi

Masses

1 55.847
2 1.008
3 1.008

Atoms # atomic

964 1 -12.386603761648722 -11.839392644207477 -11.74335154905608 0 0 0
1021 1 -12.4745573101747 -9.480383862415767 -12.312832193677652 0 0 0
1036 1 -10.268087405126066 -10.690844924192083 -10.897797942707914 0 0 0
962 1 -12.261383945106186 -9.793914040556732 -9.762399318894207 0 0 0
975 1 -10.20567923322498 -13.185954633101117 -10.27458307783638 0 0 0
974 1 -12.222091043954958 -12.061644961830284 -9.160652159859332 0 0 0
973 1 -10.029518203921125 -11.069632111440477 -8.460254534716855 0 0 0
1486 1 -10.52085188492342 -12.76169328638705 -12.840075578883212 0 1 0
1022 1 -10.463281018834959 -10.500746229036544 -13.508057175765645 0 0 0
1034 1 -10.145434271472439 -8.621852418561812 -9.13310362516621 0 0 0
1483 1 -12.536386553259977 -13.85792252924581 -13.52411001370194 0 1 0
1731 1 14.245639633337078 -13.181483289464353 -9.994148053961206 0 0 0
961 1 -14.154680307642337 -8.669930945689346 -8.763658491651562 0 0 0
963 1 14.211634092098098 -10.918552556276131 -10.66394870465871 -1 0 0
1131 1 -8.324535910885878 -9.444782279273696 -12.662246875653457 0 0 0
1038 1 -8.454299443365239 -11.753796814674939 -11.972741226332891 0 0 0
1049 1 -6.187577819497445 -13.125236866158003 -10.676237204042707 0 0 0
1144 1 -4.1634401599104685 -9.714920607378431 -10.648911262102827 0 0 0
1145 1 -6.3504953921975815 -10.746438054841914 -11.31791264830461 0 0 0
1146 1 -4.208702493530662 -11.734705988020503 -12.450730936152155 0 0 0
1035 1 -8.14259635289276 -9.594580899694815 -10.095668211327366 0 0 0
1048 1 -8.080102426041027 -12.00952073662425 -9.622545849449818 0 0 0
1159 1 -4.095631664484577 -12.097417644088083 -10.009277322802673 0 0 0
1047 1 -5.999145070605552 -10.993326032117512 -8.948902493902352 0 0 0
1269 1 -4.326485438564353 -9.293274345117181 -12.992800508402961 0 0 0
512 1 -6.352307732401222 -12.709751446342995 -13.146636474962923 0 0 1
1143 1 -6.023595869420188 -8.477757996067247 -9.434919508869093 0 0 0
1058 1 -5.9727966083508885 -13.317562837675549 -8.304334962100587 0 0 0
1255 1 -6.437186558028432 -10.25174469294803 13.649304136796209 0 0 -1
1160 1 -2.0336601102408807 -12.935296004801813 -10.97412879594303 0 0 0
1284 1 -2.1593766054926213 -10.626632266085208 -11.704165528863525 0 0 0
1283 1 -0.16004966053906777 -9.582032244662354 -10.899782621546718 0 0 0
1285 1 -0.07949541148805395 -11.67757968714497 -12.61027605348034 0 0 0
1298 1 -0.08341571714326967 -11.940332392152955 -10.168971551953094 0 0 0
1158 1 -2.069634837230069 -10.907227885979422 -9.249971155478098 0 0 0
1439 1 1.8433893941640846 -10.612989834851579 -12.058131159819077 0 0 0
1299 1 1.8726112076978971 -13.088719294228223 -11.437389597275118 0 0 0
1170 1 -1.954867431605015 -13.380108702177118 -8.51340849626737 0 0 0
1425 1 -0.28434681683171625 -9.262825066965817 -13.399595399482012 0 0 0
1296 1 0.04257653701203701 -9.978913175046635 -8.423028951559495 0 0 0
1297 1 2.0971394363778586 -10.9448495021804 -9.654219031496158 0 0 0
1310 1 2.1624511545793794 -13.296277710718059 -8.98882299415908 0 0 0
1286 1 -2.349788490785251 -12.838567065641357 -13.462275254384828 0 0 0
1437 1 1.9337314118267912 -8.500470030555812 -10.246505677847985 0 0 0
1282 1 -2.1549465808816777 -8.511720073558424 -9.753503877363844 0 0 0
1438 1 3.957082280068061 -9.415249200048446 -11.271019586253587 0 0 0
1452 1 5.970016684039241 -10.905054011708023 -9.877181004715572 0 0 0
1453 1 3.9856805742618704 -12.018011121513979 -10.817794848154797 0 0 0
1454 1 5.972533736926675 -12.913262960281138 -11.794224563087504 0 0 0
1466 1 6.137790172471274 -13.290228111386122 -9.315903298049228 0 0 0
1591 1 5.861486097514899 -10.41210735005212 -12.387584337850695 0 0 0
1451 1 4.0492093697743705 -9.773739361214567 -8.865906165505201 0 0 0
793 1 3.8310484223532946 -11.647782517547306 -13.119436819861225 0 0 1
848 1 7.766653478536423 -11.37715949365083 -13.600434323190674 0 0 1
1607 1 7.840574599131166 -13.941252357584318 -12.946028294974814 0 0 0
1309 1 4.164414659009566 -12.246141866322487 -8.229719616981878 0 0 0
1589 1 6.030491638603738 -8.401983694413152 -10.520504130893434 0 0 0
700 1 3.871880462505949 -9.149355227276533 13.60808447711584 0 0 0
1590 1 8.043057218498632 -9.436199184094054 -11.579007369273537 0 0 0
1605 1 7.9956801934964155 -11.797697080389806 -10.968625526491635 0 0 0
1465 1 8.146849122934775 -12.03844987602871 -8.500260912404933 0 0 0
1603 1 8.060726958406594 -9.683571874707809 -9.137203382326206 0 0 0
1604 1 10.1220036263935 -10.787762100309276 -10.183172960431481 0 0 0
1606 1 9.957705451713036 -12.93961677684585 -12.114574740041567 0 0 0
1619 1 10.137099367589624 -13.111728521491736 -9.627053147783933 0 0 0
1730 1 12.092639483602227 -11.703722791678016 -11.349958391519976 0 0 0
1616 1 12.342289693497356 -9.866946231586287 -9.602399502161845 0 0 0
1724 1 9.998182769626435 -10.464336531640487 -12.72084197959836 0 0 0
1623 1 12.270441171762144 -12.044678900957713 -8.986318400296057 0 0 0
1615 1 10.36213179435444 -8.675469760630495 -8.436751947261516 0 0 0
912 1 12.003635815824154 -13.963219135089421 -13.072450589155467 0 0 1
1009 1 13.865599450780618 -10.568311989367473 -13.056336178760299 -1 0 0
1023 1 14.03044168451845 -12.790898585876173 -12.392230190098426 -1 0 0
1020 1 -10.261212857896549 -8.354961818262563 -11.704492270411809 0 0 0
1019 1 -12.202151395305822 -7.344441982412492 -10.53343431755175 0 0 0
1117 1 -12.566828034174183 -6.985402624731857 -12.936652500564781 0 0 0
1007 1 -12.34634930476192 -4.834453059010327 -11.098108326365042 0 0 0
1115 1 -10.450683113229417 -5.949667415795741 -12.131190856787338 0 0 0
1224 1 -10.42340902073133 -3.64572601360919 -12.771018139530982 0 0 0
1018 1 -10.148818272238174 -6.173895612852648 -9.834394763724841 0 0 0
1113 1 -10.189056197299077 -3.8080153489390867 -10.491456614607761 0 0 0
1017 1 -12.102460646506653 -5.1077884681396934 -8.818757341705485 0 0 0
1101 1 -12.607792205381921 -4.552004165966974 -13.537249456837802 0 0 0
1130 1 -6.346488985148248 -8.235547514069786 -11.98217093865092 0 0 0
1116 1 -8.506945660012494 -6.856421090825595 -13.422170403846671 0 0 0
1114 1 -8.17430297847307 -4.841495308329012 -11.50480712055743 0 0 0
1129 1 -8.179231582662474 -7.231449261556111 -10.83114839076165 0 0 0
1238 1 -6.309650197210036 -3.356750484343218 -13.132333748530188 0 0 0
1251 1 -6.0978447122218284 -3.7206818322689177 -10.704854361981727 0 0 0
1252 1 -4.164016431839384 -4.759162135680963 -11.813460300049746 0 0 0
1253 1 -6.270574816006688 -5.846323176389525 -12.659189271295618 0 0 0
1267 1 -4.176896326259019 -7.226088496154209 -11.16888584503213 0 0 0
1128 1 -6.090865177339101 -6.098196657035467 -10.099534988419883 0 0 0
1265 1 -3.9201172951415906 -5.064198458902489 -9.380208527677539 0 0 0
1127 1 -8.057632368079664 -5.120119962624367 -8.921526020102949 0 0 0
1142 1 -3.979182211108977 -7.5642240888156325 -8.786913213525164 0 0 0
1033 1 -8.09657221809698 -7.473129001795749 -8.319924400676767 0 0 0
1126 1 -5.935128140770397 -4.123392715354994 -8.079223599192163 0 0 0
1394 1 -4.215749538460816 -6.940988198508378 -13.611554453186185 0 0 0
1424 1 1.8217890787725608 -8.263515974656471 -12.713359187684796 0 0 0
1268 1 -2.2773079382458157 -8.150903625709107 -12.35278070935243 0 0 0
1266 1 -2.0694444166291053 -6.203178677114438 -10.37268057488777 0 0 0
1407 1 -2.0694526858097735 -3.655526592115205 -11.048085039996952 0 0 0
1408 1 -0.2221093097675091 -4.784153720946367 -12.140311616266207 0 0 0
1409 1 -2.217282533032135 -5.71305911867818 -12.960927775625029 0 0 0
1421 1 0.01201881471694044 -5.027083938759031 -9.637404312605906 0 0 0
1423 1 -0.1374708204753734 -7.1777781862103875 -11.498258345068507 0 0 0
1422 1 1.948712543343035 -5.964788783203948 -10.863253488386876 0 0 0
1558 1 1.9557057714143973 -3.5597711029490853 -11.343493539237226 0 0 0
1281 1 0.07421803306106334 -7.558266455753916 -9.082958978996507 0 0 0
1264 1 -1.8938643243345865 -3.8548717114456785 -8.574767807586525 0 0 0
1559 1 1.7438294544582398 -5.8217234450844195 -13.275489526079967 0 0 0
1420 1 2.0417332729941933 -3.843596606521791 -8.893008271792286 0 0 0
1393 1 -2.3587138758723345 -3.380463926689682 -13.616452762757662 0 0 0
1435 1 1.9681517646636202 -6.34357320486166 -8.314907250937285 0 0 0
1679 1 1.620075099078747 -3.358361634053141 13.67416699990469 0 0 -1
1575 1 5.890882484531602 -7.893685639467944 -13.048454713127747 0 0 0
1436 1 3.9178043166602308 -7.308345461745522 -9.482255098851127 0 0 0
1572 1 3.957182835030739 -4.949192520873744 -10.022391691838951 0 0 0
1573 1 5.84176514259185 -6.027288650710326 -11.017022858922424 0 0 0
1574 1 3.8895513078066024 -7.048871642746635 -11.900244184332543 0 0 0
1587 1 6.156829747500041 -6.308485248757891 -8.571374844048577 0 0 0
1571 1 6.154611063938127 -3.8905817306745707 -9.355770911067491 0 0 0
1693 1 3.8524447733936746 -4.704532173991236 -12.513679144118568 0 0 0
1694 1 5.917851247681114 -3.645275491314221 -11.735913882245807 0 0 0
1710 1 7.832764790868996 -6.9591673721799525 -12.246894775574084 0 0 0
679 1 7.779484382818811 -4.680604724896687 -12.858767578807232 0 0 1
690 1 5.755796747710487 -5.551125518489867 -13.735415504221718 0 0 1
1570 1 4.259623623330651 -2.8400811744467322 -8.118928604859855 0 0 0
1708 1 8.092447737662688 -5.0035043920490505 -10.415820860701789 0 0 0
1602 1 10.225017893314217 -8.407589412993778 -10.866721334640017 0 0 0
1588 1 8.174255566770974 -7.314396915968794 -9.762232264600675 0 0 0
1804 1 12.016483796816097 -6.974175474699344 -12.566206051121565 0 0 0
1709 1 10.098335069639575 -3.700609486708995 -12.066080838517165 0 0 0
1721 1 9.950100658542901 -6.100223593098939 -11.434541902010238 0 0 0
1722 1 12.051033579292291 -4.853813433320486 -10.782808328923188 0 0 0
1707 1 10.104210478051822 -3.9792658555480838 -9.575976427511952 0 0 0
1729 1 12.263019121839054 -7.24107624438557 -10.211640662339434 0 0 0
820 1 12.139270335223742 -4.652770320706013 -13.176325585605277 0 0 1
1600 1 10.24873884716277 -6.279843512311015 -9.003853402534633 0 0 0
1723 1 9.858152549055298 -7.926505714739285 -13.270510851458022 0 0 0
1720 1 12.254146555562635 -5.232984867177704 -8.323101630197709 0 0 0
1706 1 8.188444925390556 -2.8497295021849283 -8.535615747265894 0 0 0
953 1 -14.218096079239805 -6.1101666775430274 -9.478844637256397 0 0 0
1098 1 14.259790643184022 -3.8040756431679057 -9.922693246567501 -1 0 0
1008 1 14.203989417625234 -8.464563498019581 -11.18560894583272 -1 0 0
1086 1 14.173809262010742 -3.562562746949773 -12.420435241782618 -1 0 0
1100 1 14.201352335639324 -5.90168471302832 -11.945693620862997 -1 0 0
1102 1 13.882428353166485 -8.063690481439863 13.599014810524972 -1 0 -1
1006 1 -12.161949836238152 -2.764896587145829 -9.299277431418119 0 0 0
1099 1 -12.288014932145538 -2.3738620327034106 -11.678171004567766 0 0 0
1097 1 -10.24010932677233 -1.284496526499721 -10.914978258878234 0 0 0
1222 1 -12.414507374466803 0.027391678177357548 -12.297504157036473 0 0 0
1220 1 -12.162920787271588 -0.2980114770965976 -9.78730266259495 0 0 0
1221 1 -10.340689054230474 1.1463041970806476 -11.49885806090104 0 0 0
1206 1 -12.418185381540827 2.0592991703080976 -10.475087167043553 0 0 0
1095 1 -10.110070450141855 0.7639535377489945 -9.06964382670131 0 0 0
1111 1 -10.059568679850443 -1.658099531156024 -8.443637431818576 0 0 0
1207 1 -12.47399981754211 2.441517019804884 -12.877133101092324 0 0 0
1223 1 -10.510883282557757 -1.0305730726809053 -13.379160041882372 0 0 0
1842 1 -14.259250302657296 0.6197625876435104 -8.792726554761993 1 0 0
1085 1 -14.187651259743742 -1.7315343092770235 -8.185236931722901 0 0 0
1112 1 -8.1161300947231 -2.692459226195801 -9.553499928764559 0 0 0
1250 1 -4.092527940705285 -2.741459494547156 -9.772892778571663 0 0 0
1392 1 -4.3239996538715015 -2.2988754997103733 -12.302725838887836 0 0 0
1237 1 -8.222374599512582 -2.3448098556559387 -12.033089867092187 0 0 0
1364 1 -8.453443136570499 -0.018283550714199848 -12.490576607334749 0 0 0
1219 1 -8.316299270145802 2.0868345186841992 -10.767773520295309 0 0 0
1235 1 -8.124874433527813 -0.2731753578993956 -10.100943237742474 0 0 0
1236 1 -6.207882373874284 -1.2531009854403123 -11.244277673876024 0 0 0
1390 1 -4.0647136327841995 -0.2523622433225867 -10.48629298253565 0 0 0
1376 1 -6.333095028048564 1.131497197000506 -11.989363447310376 0 0 0
1377 1 -4.322636036073657 0.05849640047335569 -13.003561714515698 0 0 0
1375 1 -4.205875827273971 2.1842241111565386 -11.08682417960829 0 0 0
1234 1 -5.966241480822381 0.8037918955148928 -9.547669872229182 0 0 0
1249 1 -6.030422484894247 -1.6941581859046853 -8.789685995211984 0 0 0
1388 1 -3.9223229303351115 1.9014650932703496 -8.717352191905544 0 0 0
1363 1 -8.354041721625071 2.3438396451963293 -13.230003683586101 0 0 0
1233 1 -8.051890864346593 1.8325238888050865 -8.35706684063128 0 0 0
1515 1 -4.370635729672536 2.5919530682822582 -13.578154375099722 0 0 0
1378 1 -6.464484555721032 -0.8108882364251642 -13.681279297108897 0 0 0
1406 1 -0.08759602161568658 -2.5348655574754435 -10.285005809331075 0 0 0
1544 1 -0.23517565330609358 -2.301633756431926 -12.720879647020736 0 0 0
1527 1 -2.185453670219056 1.105457558640504 -12.20345438116152 0 0 0
1391 1 -2.202691568358258 -1.1746432636684592 -11.585234637199541 0 0 0
1543 1 2.0701662420730784 -1.1896559054361244 -12.111633853618041 0 0 0
1389 1 -2.0143254800187904 0.8985804242351776 -9.702617758005289 0 0 0
1542 1 -0.1102457637439791 -0.285574499115846 -10.833006488941805 0 0 0
1664 1 1.7790114138469661 1.192931205647831 -12.614737911231154 0 0 0
1526 1 -0.16612873619760116 2.137747081124779 -11.473201967667308 0 0 0
1405 1 -2.1141649328337397 -1.5189006603874944 -9.120290059931577 0 0 0
1540 1 0.02117736546322213 1.9102800966603084 -8.98121025989003 0 0 0
1528 1 -0.29629577699758336 0.19762888679343504 -13.333323591276377 0 0 0
1541 1 1.9502138665078412 0.812310348729623 -10.203208290676612 0 0 0
1556 1 2.128115379887653 -1.5379244529476495 -9.482419493583343 0 0 0
1404 1 0.013352413433253218 -0.46286918345492545 -8.456593581720501 0 0 0
1557 1 3.9670664934013473 -2.4927287963847817 -10.586638062391415 0 0 0
1678 1 5.797734476341844 -1.2251233166517927 -12.353362210465814 0 0 0
1691 1 6.155032544946447 -1.5693579366220867 -9.748461359817389 0 0 0
1676 1 6.115258747705607 0.948158715325091 -10.503552891868651 0 0 0
1677 1 3.9378950202495737 -0.1295606564005336 -11.285251246495537 0 0 0
1675 1 3.994743869775103 1.9425007349940575 -9.484831937467682 0 0 0
1555 1 4.19792844733924 -0.3916133286003518 -8.817114046250364 0 0 0
1663 1 3.964319418630186 2.297851698654288 -11.911498165979676 0 0 0
579 1 5.801326684288927 1.205220485491573 -12.935204842610155 0 0 1
590 1 3.901204774074703 -2.3758515994955953 -13.205044391786487 0 0 1
680 1 7.8378873022058535 -2.258328640576151 -13.438805723110109 0 0 1
1780 1 7.953353439399372 -0.19298925951759216 -11.48278280251465 0 0 0
669 1 8.003136770902962 2.3425393880199685 -12.27997106347475 0 0 1
1692 1 8.141679491076282 -2.6169389754297097 -10.924958080132377 0 0 0
1778 1 8.14616769669097 2.004447831947136 -9.752440193137517 0 0 0
1802 1 12.246645472238836 -2.8665141422807903 -8.940625129053778 0 0 0
1690 1 8.188094812616548 -0.35171160595823814 -9.062605862278168 0 0 0
1803 1 12.141478608455838 -2.4685488039468684 -11.35064023065578 0 0 0
1796 1 9.873538465932135 -1.2145409029209002 -12.735550589638274 0 0 0
1794 1 10.162037855499218 -1.5384452595269096 -10.288150128775431 0 0 0
1795 1 11.972215306549579 -0.045821385942728554 -11.900017500995403 0 0 0
1779 1 10.046915051465703 0.9098145017662382 -10.8559105138214 0 0 0
1793 1 12.24385501560338 -0.3741611435819223 -9.588106811859973 0 0 0
1208 1 12.139321621616851 1.9349472330692112 -10.0770767590521 -1 0 0
1833 1 11.9806191731695 2.299310296510402 -12.61689671197947 0 0 0
1843 1 9.83208030375837 1.2247554697237906 -13.34134624942067 0 0 0
1792 1 10.279715953363109 0.556767366949618 -8.328097207438823 0 0 0
1844 1 14.25007288010461 -1.4179177322525174 -10.609612654598125 0 0 0
1840 1 14.106246854435355 1.0442295073133554 -11.233877859881547 0 0 0
748 1 14.060804268380025 -1.1890545205414629 -13.062669337748934 0 0 1
1195 1 14.11306153388555 1.2098849424791176 -13.570734007798821 -1 0 0
1218 1 -10.2657706871452 3.1699451741771725 -9.695582234399552 0 0 0
1204 1 -12.307987123202931 4.2132273229339 -8.576507616077143 0 0 0
1205 1 -10.547385078533303 3.5765411543996777 -12.114297311671535 0 0 0
1350 1 -12.35061129897821 6.971120602631064 -11.67621748031571 0 0 0
1203 1 -10.380522985917324 5.576444639966155 -10.348337564182884 0 0 0
1334 1 -12.234825870039701 6.682354621888734 -9.285283402696273 0 0 0
1352 1 -12.42017770576408 4.467848824317922 -11.075297599409739 0 0 0
1361 1 -10.45438147730943 5.947439322175491 -12.7999890867637 0 0 0
1201 1 -10.194697123720807 7.636920465655951 -8.415219008374475 0 0 0
1348 1 -10.329351921772744 7.8994780433317935 -10.873421336414022 0 0 0
102 1 -12.550769562708226 4.913530485658562 -13.45389628303314 0 0 1
1340 1 -10.55282533996203 8.392529732459742 -13.362730335221912 0 0 0
1858 1 14.182852537174028 7.951962187901842 -10.472596878335105 0 0 0
1349 1 -8.356351466673303 4.58313741132849 -11.43826158836945 0 0 0
92 1 -8.40471279370642 6.876975601798545 -11.928862786081321 0 0 1
103 1 -6.437391448714436 6.009784428130473 -13.128723786122423 0 0 1
1374 1 -6.148488933446531 3.2090643558090015 -10.171259605166124 0 0 0
1359 1 -8.198385311957438 6.575787044515987 -9.49518122971697 0 0 0
1360 1 -6.258180491797251 5.706565058548389 -10.524300882891847 0 0 0
1362 1 -6.426117200796178 3.5482048411773732 -12.503671243339518 0 0 0
1502 1 -4.25642083589219 6.995139352856462 -12.312920670226198 0 0 0
1511 1 -4.0092036906726225 6.571463586647344 -9.857834371181749 0 0 0
1513 1 -4.2870647231392045 4.6311128924063 -11.76012557914261 0 0 0
1373 1 -4.048424880960942 4.252391331270275 -9.341520556512497 0 0 0
1217 1 -8.05700978180058 4.16946520905929 -8.946182794104974 0 0 0
1358 1 -6.014337810270332 7.580263250481448 -8.818986395523739 0 0 0
1501 1 -6.316855197885366 8.093052274903624 -11.261002020864998 0 0 0
1372 1 -5.91365874041608 5.228964348211829 -8.196383305923153 0 0 0
1514 1 -2.3157673275014705 3.6259120109938436 -12.888613418803462 0 0 0
1512 1 -2.15945138142005 5.533645927091857 -11.080967698669228 0 0 0
1525 1 -2.045462374204142 3.1796745062945817 -10.474189526298824 0 0 0
1649 1 0.06115738455798514 6.628410058942073 -10.16864172664849 0 0 0
1651 1 -0.14005710633375124 4.655590641176669 -12.093078118117063 0 0 0
1524 1 0.12943661798267847 4.331288605654429 -9.629104860803455 0 0 0
1650 1 1.976771043083776 5.600462252516852 -11.377508598456796 0 0 0
1652 1 1.7917822355517465 3.5206401023859684 -13.223936986842016 0 0 0
1662 1 2.0106879950147984 3.186744973975614 -10.705871751164914 0 0 0
1641 1 -0.18644361606944493 7.108474913922979 -12.82281574661882 0 0 0
1510 1 -1.9679179280180588 7.6509703292759355 -9.227410592216593 0 0 0
1523 1 -1.919475532205917 5.231062092923647 -8.541997513674275 0 0 0
1648 1 2.019584938602545 7.819967583701434 -9.645015090518946 0 0 0
1660 1 2.140274464485202 5.401149320592545 -8.941344900020262 0 0 0
1640 1 -2.139776335727447 8.082057706678746 -11.628671122610267 0 0 0
1745 1 1.9024582255076616 8.029329374836646 -11.984860671654962 0 0 0
1642 1 -2.3883808819414654 6.010525020205407 -13.503894292402796 0 0 0
1539 1 2.1753647343088893 2.887283159209737 -8.31450723685299 0 0 0
1674 1 6.173933861819513 3.022323295081737 -8.72366220129081 0 0 0
1765 1 6.114365047275204 3.2715872001509787 -11.155127796285585 0 0 0
1661 1 4.054537495238527 4.364801557062819 -10.05390536280802 0 0 0
1754 1 6.017742780254206 5.6869816837546985 -11.736512280789587 0 0 0
1755 1 3.898135646714781 4.646511615568716 -12.489478724382156 0 0 0
1763 1 6.187237886419961 5.352608155896288 -9.360649995590116 0 0 0
1746 1 3.8195669292360037 7.0515470388506785 -13.129443025700198 0 0 0
1753 1 4.085712664360113 6.616744020139553 -10.567252137270316 0 0 0
1752 1 6.065602911816352 7.890038137511489 -10.099837335943878 0 0 0
1815 1 5.900754096365393 8.11418475379702 -12.35592784671367 0 0 0
1764 1 7.970416679719424 4.634937730779601 -12.738327970917878 0 0 0
317 1 7.979235179887631 7.044654824464086 -13.491559028131993 0 0 1
328 1 5.77353575191815 3.591113999456912 -13.546780313603277 0 0 1
1659 1 4.173141828976544 6.498502359236056 -8.191136571344614 0 0 0
1834 1 8.026336213558647 4.377083340409062 -10.370992551155899 0 0 0
1822 1 7.916410302916713 6.938476879240021 -11.03270319317058 0 0 0
1762 1 8.253166494367811 6.4549193717192 -8.595630209238157 0 0 0
1777 1 10.276770074130663 3.000092915136374 -9.0344214766778 0 0 0
1824 1 9.910397515232575 5.711250571349591 -12.060117667321165 0 0 0
1823 1 12.174683983743513 6.904598580937755 -11.329091974447774 0 0 0
1832 1 10.267272662190983 5.411067572714579 -9.688728536731015 0 0 0
1856 1 12.19934446842516 6.4813182861693726 -8.920591078997084 0 0 0
549 1 10.111946658253768 3.3711210204270152 -11.514002474761398 0 0 1
440 1 12.036752609609334 4.596187462518788 -13.110142125945025 0 0 1
1831 1 12.181830655282955 4.392376322118302 -10.674231184629685 0 0 0
1821 1 10.249710788183954 7.758384870645273 -10.264720365887271 0 0 0
430 1 10.032863478412892 8.132443332530347 -12.707842488823864 0 0 1
1839 1 12.338276404192431 4.063279645600357 -8.302863707783672 0 0 0
1193 1 14.190414908898408 5.486976206092429 -9.953332212683746 -1 0 0
1841 1 14.248124301858148 3.085001457686989 -9.410033983225564 0 0 0
1341 1 14.168407294127366 5.693463221502199 -12.344893933688226 -1 0 0
1194 1 14.05217284127912 3.36061837222854 -11.863582337348822 -1 0 0
419 1 14.12242646185781 8.27489948358484 -12.806726839534116 0 0 1
1861 1 -10.414112585734209 12.769592195197074 -12.170685551658206 1 0 0
53 1 -12.413981645408729 9.351929364418343 -12.289458654961985 0 0 1
1338 1 -10.42139181045314 10.254824695215188 -11.43661211830082 0 0 0
1339 1 -12.298063443760038 9.057228192276561 -9.824498524997278 0 0 0
1336 1 -10.263545104982857 12.452152722907105 -9.712182749604438 0 0 0
1346 1 -10.107554040821718 10.06677289716902 -9.051111307497948 0 0 0
1332 1 -12.405339717371605 11.466422166246442 -10.429578992545503 0 0 0
1488 1 -12.561335406713129 11.721606193385973 -12.854356205896135 0 0 0
1482 1 -12.080379616800782 13.472245887560273 -8.51033908993126 0 0 0
1024 1 -12.312950894512225 13.874888531614413 -11.034580515272092 0 -1 0
1625 1 -4.198729375178761 13.8194738903956 -11.848502419265886 0 0 0
1494 1 -8.565937973842058 9.331023552476786 -12.544102790609843 0 0 0
1493 1 -8.493477964849193 11.65793823258744 -13.253842120226867 0 0 0
1491 1 -6.37185328132056 10.421008600362615 -11.956845513773484 0 0 0
1347 1 -8.2003889222321 9.147846348826636 -10.116831671194474 0 0 0
1490 1 -6.135690726993724 12.367278751254798 -10.289605233915777 0 0 0
1492 1 -4.373662961019361 9.353351745324236 -12.881693052288801 0 0 0
1500 1 -4.1782920302149 8.964859668312815 -10.471232104198478 0 0 0
1626 1 -6.326510796363046 12.868520647390785 -12.588978725646827 0 0 0
1631 1 -4.213848367432458 11.357312451470186 -11.183774910370346 0 0 0
1499 1 -6.024824116736276 10.082405922965677 -9.346581422926743 0 0 0
1498 1 -4.091945604805538 11.152463677934435 -8.81688155335975 0 0 0
1485 1 -8.287556857743649 11.384978408734167 -10.879748691851983 0 0 0
1629 1 -4.181595413234991 13.62849010299049 -9.348488956886413 0 0 0
1489 1 -8.120672188798927 13.547462821408978 -9.044564993127274 0 0 0
1345 1 -8.091310068139563 11.152364638985137 -8.287813264038839 0 0 0
1037 1 -8.284566619711427 13.785418408332507 -11.422621510694384 0 -1 0
1627 1 -4.354914663211257 11.753891166926127 -13.583232856966891 0 0 0
1733 1 -0.2920699420737609 13.937871981603173 -12.162244782731147 0 0 0
1734 1 -2.2325618018884352 12.799649912478557 -12.838353512453674 0 0 0
1632 1 -2.211967932765111 10.341153617435356 -12.236682333134437 0 0 0
1630 1 -2.165498981966552 12.664246937901112 -10.378248389954187 0 0 0
1638 1 -2.043798991171043 10.175426980071702 -9.831682279881415 0 0 0
1639 1 -0.06071306959494116 9.077711594532381 -11.05178037205692 0 0 0
1737 1 -0.26760274059269307 11.631345551429817 -11.48563799726247 0 0 0
1736 1 1.9550205642803178 12.52089746865062 -10.80882635772996 0 0 0
1743 1 1.9581701874764192 10.201604089272585 -10.074103743451182 0 0 0
1637 1 0.03281729343168571 11.235160904256428 -9.10449089668769 0 0 0
1738 1 1.7882301631489597 10.503559402978727 -12.607819754148833 0 0 0
66 1 1.7051327556485951 12.794033392616079 -13.276152841811216 0 0 1
1805 1 -0.3198166653099701 9.52699947335067 -13.51840337055146 0 0 0
1647 1 0.09346489345290365 8.86111698537712 -8.503424899413911 0 0 0
1735 1 0.09826560182240485 13.68586805111179 -9.759497513416118 0 0 0
1741 1 2.2247353969266292 12.21725927008675 -8.485474658745215 0 0 0
1440 1 3.862590182274946 13.928375254987152 -12.581333899294805 0 -1 0
1742 1 4.284213229853922 11.19805097321488 -9.46264050713014 0 0 0
1744 1 3.8931180292135394 9.201489995212608 -11.12360156780224 0 0 0
1751 1 4.152503854602507 8.82499139934016 -8.833647933787088 0 0 0
1807 1 5.9779770599911295 12.689529390119315 -11.210103350484136 0 0 0
1808 1 3.9443549618912854 11.454410935442027 -11.989838321068149 0 0 0
1813 1 6.052614466750548 10.255641010686336 -10.516688154803466 0 0 0
1809 1 5.884771810644487 10.48582510905051 -12.95459023815824 0 0 0
1811 1 6.125346523031954 12.227395982958626 -8.689560005643365 0 0 0
1806 1 4.058637893467434 13.62654325214135 -10.199052805749412 0 0 0
122 1 5.770657945395804 12.93704442702608 -13.703523408902889 0 0 1
1846 1 7.915606348382855 11.658335909386356 -12.392592159155807 0 0 0
1814 1 7.967858586123157 9.254964562615545 -11.654586302736405 0 0 0
1812 1 8.006674566073421 11.329450868133815 -9.893043842352338 0 0 0
1845 1 8.102137178762916 13.837938468443188 -10.519712804335242 0 0 0
1820 1 8.268421364962382 8.846034386577 -9.393214255001414 0 0 0
1333 1 12.06011049617307 13.815333497523973 -10.70596359280668 -1 0 0
1855 1 12.197267989193168 9.073650861118978 -9.502892000029124 0 0 0
1620 1 9.943776562180247 12.702273182942385 -11.435630026276801 0 -1 0
1847 1 10.173640853361299 12.42054991264904 -8.989167190878312 0 0 0
1849 1 10.081076283894056 10.241336114865497 -10.781235445138664 0 0 0
1850 1 12.071622279163112 9.322456282030917 -11.926951551746196 0 0 0
1860 1 12.103840949844571 11.438054874603193 -10.048908486723867 0 0 0
307 1 9.967476671830354 10.58959237622361 -13.364648353501423 0 0 1
3 1 12.047388277800763 11.591800367086055 -12.518023549739278 -1 0 1
1819 1 10.393181056926156 10.005672518791503 -8.3472682189822 0 0 0
1851 1 12.381714731773013 13.492914772412089 -8.238487573276185 0 0 0
1853 1 -14.168027306298502 10.06362799507992 -8.80078852814503 1 0 0
1854 1 14.238451773728976 12.550811346844412 -9.253106709069517 0 0 0
1862 1 14.171240262610112 10.340216200157847 -11.236662826960865 0 0 0
1848 1 14.044094791465245 12.857072442428947 -11.662542067346225 0 0 0
421 1 13.924790294831272 10.765976933516388 -13.692739329318215 0 0 1
933 1 -14.141304254754806 -10.97100083004672 -8.128416687311361 0 0 0
983 1 -9.986449570060877 -13.445922692749958 -7.9194768820221215 0 0 0
940 1 -11.973152441560057 -12.36637509675762 -6.75547040378023 0 0 0
972 1 -12.010709316895122 -10.020521727847065 -7.320449909138482 0 0 0
981 1 -10.044159155519473 -11.287959526602492 -6.040440283887705 0 0 0
971 1 -9.920317284890388 -8.932524073535214 -6.774739245413207 0 0 0
938 1 -11.846693160999873 -10.195627130401542 -4.756478510779786 0 0 0
979 1 -9.80443824843891 -9.308527240109214 -4.270546707132393 0 0 0
1835 1 -13.80939026202724 -11.540585306070422 -3.139344606515154 1 1 0
944 1 -9.686782617374732 -11.65551616256922 -3.5788718069149184 0 0 0
937 1 -13.86100706702837 -9.282320622456474 -3.8630157138027954 0 0 0
1190 1 -11.837646733214937 -12.658829736001284 -4.317629804299154 0 1 0
939 1 -13.896297185462476 -11.322748166506795 -5.663793913260037 0 0 0
946 1 -9.937724712791525 -13.700561225438333 -5.441857738144453 0 0 0
932 1 -14.050171770232094 -8.94782210316081 -6.367121380768036 0 0 0
941 1 -13.984193819059644 -13.825391339551887 -5.006766184889278 0 0 0
934 1 -14.174412458250265 -13.352152861006859 -7.453444005888587 0 0 0
943 1 -11.690690671379945 -10.623434091884134 -2.452204274530965 0 0 0
1157 1 -3.8597447502825144 -9.973297179532265 -8.085200032458388 0 0 0
1046 1 -7.903361985165189 -9.92768898660739 -7.7849526246205665 0 0 0
980 1 -7.820973630285125 -10.270605638031912 -5.185124151382437 0 0 0
982 1 -7.929323457713083 -12.315257235773307 -7.184197496930763 0 0 0
1056 1 -5.765093492729077 -11.245183724600167 -6.297081104509546 0 0 0
1055 1 -3.76218083071973 -10.213213106936369 -5.532052323095218 0 0 0
1057 1 -3.8613966588647415 -12.25464932193274 -7.539528690578166 0 0 0
1064 1 -3.768037328620496 -12.554282972493858 -5.103751163393516 0 0 0
987 1 -5.689147181152441 -11.665884613477441 -3.8294176062899066 0 0 0
988 1 -7.814808059195427 -12.65382889300071 -4.6948741155515865 0 0 0
1054 1 -5.799603922953471 -9.216195140845075 -4.469380749367627 0 0 0
1062 1 -3.6386936706675552 -10.579293270771885 -3.0219988716566935 0 0 0
1045 1 -5.81140797958429 -8.823292531219185 -6.996191665904771 0 0 0
989 1 -5.867962164522078 -13.715280824750225 -5.826825790648221 0 0 0
986 1 -7.646529674700698 -10.449965333101147 -2.729730562512252 0 0 0
992 1 -3.6377546439952493 -12.988890585536115 -2.623591200458147 0 0 0
1169 1 0.20955641102190725 -12.37404517541204 -7.790868766603382 0 0 0
1063 1 -1.7762873654778808 -11.445667377455633 -4.2267964298688625 0 0 0
1168 1 -1.849829671741059 -11.155530515638326 -6.753662106861598 0 0 0
1167 1 0.3349374401408145 -10.253096654978396 -5.798286059737277 0 0 0
1177 1 0.3802156179456091 -12.61473952703815 -5.307917376250236 0 0 0
1156 1 -1.8288200596173194 -8.888381350612896 -7.242871275611876 0 0 0