LAMMPS data file via write_data, version 2 Aug 2023, timestep = 0, units = metal

1864 atoms
3 atom types

-13.863032853689516 13.863032853689516 xlo xhi
-14.135956059852447 14.135956059852447 ylo yhi
-13.961137590007844 13.961137590007844 zlo zhi

Masses

1 55.847
2 1.008
3 1.008

Atoms # atomic

161 1 -12.021589500215654 -12.136829625416183 -11.989043487243974 0 0 0
636 1 -11.176794235490032 -14.07917434751061 -10.651781245662061 0 1 0
224 1 -7.28433858038879 -12.414039524833758 -12.885303030455734 0 0 0
183 1 -9.696774400995375 -12.163786935598512 -12.568076477710596 0 0 0
184 1 -8.818962615893028 -13.970029139258324 -11.366280439059775 0 0 0
223 1 -4.875538954003959 -12.499688078983548 -13.252844493910423 0 0 0
170 1 -5.17520361524101 -11.99608453464865 -10.848340425895731 0 0 0
229 1 -2.192965679194142 -13.179778116039353 -13.267261943258655 0 0 0
222 1 -2.314591333171032 -13.092491921267227 -10.628629156813101 0 0 0
85 1 -12.865752949917313 -10.250733777891789 -13.345403122196174 0 0 0
54 1 -10.808269242181698 -9.960178753780486 -11.453711984206253 0 0 0
55 1 -13.221092658698382 -9.915264889616914 -11.021277443061846 0 0 0
317 1 -10.50848761526186 -10.144685935068265 -13.763576775770268 0 0 1
84 1 -8.380071356126063 -10.066939438980388 -11.719587108520358 0 0 0
178 1 -6.0516240063150075 -10.248392563676717 -12.087649941892394 0 0 0
101 1 -4.376926167571527 -8.84631553485128 -13.190179615199435 0 0 0
81 1 -4.351691232669506 -8.754989037159165 -10.808970864429611 0 0 0
102 1 -3.1478828313223435 -10.94597951499923 -11.688470727572525 0 0 0
221 1 -0.9501934632610123 -11.304343991972416 -12.152563405492993 0 0 0
106 1 -1.9935455227390229 -9.218557100603459 -13.318131380210664 0 0 0
100 1 -1.6780060762336753 -9.082566931183507 -10.852557119410736 0 0 0
65 1 -11.78439085398994 -8.092170988479449 -12.626161725433168 0 0 0
30 1 -12.874080702239354 -5.847631038225449 -11.487146735442451 0 0 0
292 1 -12.568858111276752 -6.020995459309857 -13.832918750714246 0 0 1
63 1 -10.51025419614668 -5.966078748091919 -11.798487458060706 0 0 0
93 1 -9.314179755927297 -8.085226493633048 -13.000716302834544 0 0 0
92 1 -8.095505307698648 -6.241314093600385 -12.02216385914431 0 0 0
52 1 -9.637320396470052 -7.7350888331628385 -10.683604222705917 0 0 0
82 1 -7.045439803530537 -7.969632685420727 -10.841462996418288 0 0 0
83 1 -6.795529311994462 -8.392431466251827 -13.241748321923836 0 0 0
91 1 -5.396546838581642 -6.526034058342301 -12.345568579997394 0 0 0
99 1 -0.6325998171922382 -7.124790936700017 -12.604310521285987 0 0 0
104 1 -3.0236527897586605 -6.9475585713096475 -12.342462243978556 0 0 0
74 1 -11.309189525741669 -3.9881894333034467 -12.896057437937587 0 0 0
73 1 -11.780874350893082 -3.8708735886647805 -10.560065673068129 0 0 0
1344 1 -13.83124764392381 -3.919482114513279 -12.714829643617714 1 0 1
97 1 -8.932077861924311 -4.409599824525131 -13.297319148217081 0 0 0
61 1 -9.368784555217129 -3.922150298486983 -11.024251736010267 0 0 0
96 1 -6.982142884733362 -4.152588416219675 -11.306340565469354 0 0 0
257 1 -6.339152187405209 -4.552960843964431 -13.535533482152527 0 0 1
243 1 -3.8565438946730346 -4.909141135910028 -13.622414395985057 0 0 1
89 1 -4.109633791331335 -4.535268091965921 -11.322331438022665 0 0 0
103 1 -1.7271495947198652 -4.937633591949613 -11.463831204768589 0 0 0
952 1 -0.13586608339487682 -3.198731315294534 -13.00122743696609 0 0 0
105 1 -2.51892533581832 -2.9212168021861977 -12.880914408747783 0 0 0
232 1 -1.3535965407343973 -5.206011807277974 -13.902015236917224 0 0 1
87 1 -0.5720736711087913 -3.0606614276982285 -10.530400870454518 0 0 0
488 1 -12.5133536905439 -1.9385092305019516 -11.731093267542139 0 0 0
75 1 -10.887814220264346 -0.09869776406046249 -13.286927651349238 0 0 0
530 1 -8.472508174806608 -0.4044842483933646 -13.667362432737466 0 0 0
34 1 -10.217442369067298 -1.961245301070086 -12.108823736070065 0 0 0
72 1 -7.72358324086483 -2.28785086463175 -12.473315973422343 0 0 0
32 1 -8.820384802580438 -0.11027872490842938 -11.29119093690584 0 0 0
95 1 -5.002699503147895 -2.6015172619145392 -12.309267257528939 0 0 0
67 1 -6.23652520567494 -0.44554427456943557 -11.221587377038315 0 0 0
94 1 -3.7416217802820917 -0.7420710010558658 -11.411316945302854 0 0 0
234 1 -5.980172169575821 -0.7391041962135567 -13.711071665758539 0 0 1
550 1 -1.3930839323026216 -0.9556673824815878 -11.841962399619973 0 0 0
1609 1 -13.534166166155194 -14.007270907512027 -10.410596193295891 1 1 0
635 1 -11.495976036181643 -14.089385813183062 -8.026874766731787 0 1 0
160 1 -12.36261550419895 -11.837568920154947 -9.504534816374104 0 0 0
196 1 -12.430015939741239 -12.017543917244843 -7.148735606344455 0 0 0
179 1 -7.61776737601679 -11.89670978181182 -10.437655220708733 0 0 0
158 1 -10.336303141614856 -11.539830388582121 -7.799907781264169 0 0 0
148 1 -9.257927668613192 -13.670237813309287 -8.944036236711565 0 0 0
159 1 -10.12062960862579 -11.782765748497152 -10.200020748915133 0 0 0
146 1 -8.084865232895584 -11.502129632936054 -8.195301062119537 0 0 0
678 1 -4.424551163438853 -13.77285644656706 -9.557654669398964 0 1 0
687 1 -6.87505900426647 -13.740475719793842 -9.142776685690919 0 1 0
169 1 -5.626835613386737 -11.650387576599904 -8.362233702705172 0 0 0
677 1 -4.978427681540321 -13.490265579995558 -7.2311249644735565 0 1 0
168 1 -2.6736277178968066 -13.22613690810369 -8.023306389962304 0 0 0
214 1 -0.2654033157653011 -13.082916789016974 -8.408422171994289 0 0 0
53 1 -11.24495163730782 -9.650381427466302 -8.966886286871413 0 0 0
185 1 -13.543601653477557 -9.822706011983389 -8.269738602125138 0 0 0
157 1 -8.8243406130258 -9.686449915862047 -9.468775218725487 0 0 0
156 1 -9.417539432034346 -9.191191430931852 -7.04888925867443 0 0 0
144 1 -6.871402153112977 -9.337657477042992 -7.353564153325631 0 0 0
177 1 -6.3598169070881925 -9.857948342793993 -9.724722225913998 0 0 0
175 1 -4.582158511845899 -9.525200380639843 -7.823566314909275 0 0 0
176 1 -3.5361859137556486 -10.993615885280448 -9.23420468437023 0 0 0
219 1 -1.1342840924791098 -11.11239339982973 -9.540192387833898 0 0 0
166 1 -1.4156555631224403 -11.040869642066035 -7.132932738232634 0 0 0
174 1 -2.4327837595563757 -8.778017606536913 -8.537661446001438 0 0 0
64 1 -12.060240800303689 -7.862810039757691 -10.288913396165919 0 0 0
10 1 -12.222535608231826 -7.782715012010863 -7.6294061774632 0 0 0
1166 1 -13.212113090922232 -5.849076267941385 -8.932327369732251 1 0 0
62 1 -10.79395925432462 -5.689447740294716 -9.465713948265682 0 0 0
51 1 -9.9483010595108 -7.3965164686934735 -8.368343588846367 0 0 0
155 1 -7.567411841892169 -7.495934974371148 -8.554730807709767 0 0 0
43 1 -8.471242575693353 -5.706730401124249 -9.879712361772423 0 0 0
80 1 -5.088511724289583 -7.635723779071924 -8.880489839624019 0 0 0
90 1 -5.9251694892405835 -5.903099475234711 -10.188069099423107 0 0 0
78 1 -3.415158864937295 -6.71619357154523 -7.257266792647816 0 0 0
79 1 -3.241196001831863 -6.541440302538279 -10.082220930687665 0 0 0
98 1 -0.7523810755610505 -6.969928835160866 -10.097827638545517 0 0 0
172 1 -1.1063525773935154 -6.909762200340218 -7.612282601784194 0 0 0
29 1 -12.09739754484682 -3.415680009492096 -8.140364692952893 0 0 0
9 1 -11.108622351007353 -5.2223525846633745 -7.228839918439623 0 0 0
8 1 -8.63960520731317 -5.455155732275681 -7.48419166179464 0 0 0
18 1 -9.692698558893296 -3.591156900096605 -8.546119235270172 0 0 0
60 1 -7.245716322939196 -3.8305593912171325 -8.881048851318095 0 0 0
42 1 -6.19521509658345 -5.533482010149097 -7.827654979003956 0 0 0
41 1 -4.288857303997995 -4.766738716500349 -8.77625530882582 0 0 0
77 1 -1.8611216351840216 -4.7518658401721385 -9.011209842698088 0 0 0
129 1 -12.797421076152524 -1.6788721631877053 -9.342117086242652 0 0 0
127 1 -10.794698865747774 -1.3440797915276654 -7.435432313030709 0 0 0
128 1 -13.1217537234858 -1.0927043755128825 -6.998540123852557 0 0 0
33 1 -10.377415089845329 -1.7955688231507647 -9.79492551809405 0 0 0
68 1 -7.966499206752039 -1.9802180570497345 -10.075926974446187 0 0 0
16 1 -8.303200751624829 -1.5812189242440216 -7.5781539893994365 0 0 0
59 1 -5.253928493888774 -2.600749728952355 -9.877813102942113 0 0 0
58 1 -5.588274591456296 -2.66243909630861 -7.547317640719919 0 0 0
57 1 -3.991864004708523 -0.6361697765801697 -9.07884592271101 0 0 0
66 1 -6.320599253576207 -0.432106076301741 -8.887544611158013 0 0 0
86 1 -0.8974235453306623 -2.8121829055245 -7.991085399097746 0 0 0
88 1 -2.921113555460238 -2.784578946102691 -10.149383810495358 0 0 0
39 1 -3.129103029574857 -2.7089931686765034 -7.712284015705193 0 0 0
549 1 -1.630927478329916 -0.8413609406575979 -9.38440361499497 0 0 0
186 1 -12.910031999848872 -11.964513259208854 -4.7359417589015536 0 0 0
198 1 -10.452091572525845 -11.978486301948799 -4.632627195073534 0 0 0
628 1 -7.3316891163088815 -13.216764906096042 -6.803936784777648 0 1 0
147 1 -9.70412329521589 -13.258605463111236 -6.587208974926367 0 0 0
627 1 -7.80347731533363 -12.75799080394427 -4.477550644378262 0 1 0
589 1 -5.176833943567072 -13.03403250917327 -4.903892435293029 0 1 0
167 1 -3.728374990819937 -11.383348527864687 -6.630716021861513 0 0 0
1023 1 -0.41068917211994815 -12.993109117063485 -5.886539704163457 0 0 0
163 1 -2.7962922446248992 -13.164958321815156 -5.47646714995428 0 0 0
187 1 -11.438903086330246 -10.029584148106672 -6.166596947341615 0 0 0
45 1 -11.536019786965484 -9.93764729046411 -3.6174687669804513 0 0 0
1158 1 -13.744623655659776 -9.677240813240019 -5.811341336502888 1 0 0
145 1 -8.56731856321551 -11.04111329314656 -5.85397730952948 0 0 0
188 1 -9.64083817425213 -8.784288743856347 -4.660802908471625 0 0 0
200 1 -7.2492340398123245 -9.00561789176183 -5.029841340399409 0 0 0
138 1 -6.226171024118718 -11.246756935871677 -6.1213327596927325 0 0 0
136 1 -3.8709149569435386 -10.997314763823658 -4.239732220281269 0 0 0
210 1 -6.284472433141798 -10.771681684285486 -3.7969763905691227 0 0 0
143 1 -4.780018801051195 -9.326178750865015 -5.454951953808406 0 0 0
165 1 -1.480600647292345 -10.777401588658192 -4.560049130437218 0 0 0
140 1 -0.3493381086377596 -8.731759198203648 -3.79645719169549 0 0 0
173 1 -2.426918726177009 -8.96237546462958 -6.012435702472265 0 0 0
164 1 -0.15749864664354973 -8.801831256282757 -6.353247259994917 0 0 0
142 1 -2.732910593999348 -8.600956288928291 -3.5371319197304736 0 0 0
19 1 -12.414840192923817 -7.864091558342982 -5.03435813286054 0 0 0
122 1 -13.341484659375192 -5.72252848790882 -3.842135619284372 0 0 0
21 1 -10.694642914046948 -6.541935507772415 -3.6821575219979596 0 0 0
189 1 -10.465496467510796 -7.042014812794775 -6.036697928275316 0 0 0
154 1 -8.083440798667226 -7.225897296492666 -6.177837355656797 0 0 0
190 1 -8.362498722681394 -6.523490842536305 -3.9453295842325247 0 0 0
153 1 -5.702924839399582 -7.310461962560426 -6.484404095078504 0 0 0
204 1 -5.992565072520375 -6.988562772755446 -4.234388323365373 0 0 0
151 1 -3.725903628405126 -6.780136874014437 -4.869655687805505 0 0 0
171 1 -1.261835184034819 -6.650476384557754 -5.137453704091303 0 0 0
123 1 -13.291544967042356 -5.602583239432892 -6.341933928401317 0 0 0
121 1 -11.483561685118094 -4.72390629588584 -4.835067950921154 0 0 0
27 1 -12.425702892724534 -2.9310674385654565 -5.851129908332005 0 0 0
7 1 -9.144280118536782 -4.9240981340065115 -5.295228639486975 0 0 0
6 1 -7.579975034104566 -3.360953000900226 -6.464770802851438 0 0 0
17 1 -10.036741209661908 -3.2009814325595585 -6.3103477851333025 0 0 0
191 1 -6.690540697475223 -5.229227782183546 -5.334685753921656 0 0 0
40 1 -4.606296103973481 -4.490958855234432 -6.241678797460998 0 0 0
5 1 -4.864427183776476 -4.627633594003891 -3.6787220039116164 0 0 0
76 1 -2.185231175301933 -4.666912072982836 -6.611712358027749 0 0 0
38 1 -2.4849233425794086 -4.520554610211132 -4.076267518936122 0 0 0
149 1 -0.07483798468701686 -4.734767511361513 -4.361268360942599 0 0 0
114 1 -13.269657801887975 -1.392652745124261 -4.290047129413622 0 0 0
126 1 -10.638329641871525 -1.7043179106677169 -4.556056993544811 0 0 0
125 1 -9.19445149951851 -0.09252410617520646 -6.046730008375083 0 0 0
15 1 -8.296056976703657 -2.177727530448461 -4.6669195332505655 0 0 0
644 1 -7.086781389678986 -0.24405046034187095 -3.824086737765283 0 0 0
13 1 -4.647110699286602 -0.5537223009074541 -4.194738377268765 0 0 0
522 1 -4.363064562295378 -0.6368883201363378 -6.666382818358261 0 0 0
4 1 -5.873545195668702 -2.5220213638270383 -4.92580256358257 0 0 0
14 1 -6.73313090135971 -0.5594783738362352 -6.215309283204503 0 0 0
513 1 -1.9303950023402994 -0.6151694864555726 -6.952462623112492 0 0 0
37 1 -1.0896285323620152 -2.6407540540437733 -5.613111093696169 0 0 0
56 1 -3.4178684776918633 -2.604285117325606 -5.255904531366538 0 0 0
2 1 -2.0873166242750294 -0.5684127111437078 -4.4786493621644485 0 0 0
197 1 -11.802273803730305 -13.860234591624048 -3.1905114443015457 0 0 0
70 1 -12.20662017441029 -13.775891922231274 -0.7961037255578809 0 0 0
201 1 -13.117676658550753 -11.720536287167485 -2.218610028655114 0 0 0
69 1 -10.578358035431243 -11.994986216605355 -2.0749649008894853 0 0 0
564 1 -8.08840197575984 -12.373038989648379 -2.132327335775578 0 1 0
209 1 -9.649646034104665 -13.982785488463154 -0.8046149210804021 0 0 0
225 1 -5.843629479432835 -12.107258630035078 -0.15577836727102756 0 0 0
137 1 -5.554162089690278 -12.619932541643157 -2.586826228577154 0 0 0
392 1 -3.3854997000640488 -12.519444651355052 -0.5799143298723468 0 0 0
995 1 -0.5940191519345461 -12.740906352302122 -3.37049985948941 0 0 0
675 1 -2.9811899332451155 -12.682340486570146 -3.0030497037797623 0 1 0
162 1 -1.0651274110860776 -12.690287536549125 -0.9247236898135007 0 0 0
46 1 -11.732182196061448 -9.726219172158002 -1.3573581686159653 0 0 0
199 1 -8.93285159826119 -10.574803526488346 -3.3521357022925944 0 0 0
71 1 -9.160934478979868 -10.006385082190164 -1.0451809974629054 0 0 0
211 1 -6.702129091616311 -10.338699606776188 -1.5077537728049943 0 0 0
135 1 -4.2846469143620105 -10.54773528600137 -1.8459049061996815 0 0 0
212 1 -4.982069398266351 -8.709728353630412 -3.099795014692539 0 0 0
141 1 -1.8592810346848427 -10.720976979193676 -2.2381283455912993 0 0 0
139 1 -0.7760650035809888 -8.5613460623878 -1.4867081652659735 0 0 0
48 1 -10.435398503946278 -7.696365173622254 -0.2801641785390192 0 0 0
20 1 -12.559780011878011 -7.6244212626886085 -2.515653421012786 0 0 0
181 1 -11.297389152248787 -5.671762980419997 -1.588808194870845 0 0 0
202 1 -12.828129807461371 -7.555393528194328 -0.08350727954328718 0 0 0
203 1 -7.482548493135425 -8.415065052925904 -2.751106948191806 0 0 0
47 1 -10.008631818266966 -8.334882460535898 -2.4667939532800993 0 0 0
22 1 -7.978666148001426 -7.9046012581215495 -0.45246178957479444 0 0 0
23 1 -8.852015592101377 -6.120494511070785 -1.7351477664552029 0 0 0
152 1 -3.928946317502051 -6.450892359981708 -2.307474258413187 0 0 0
49 1 -5.665048667307994 -8.217058872805172 -0.8263028516619642 0 0 0
192 1 -6.334741844124399 -6.223973375696064 -2.0360634534072 0 0 0
50 1 -4.234437351608214 -6.0462960896783144 -0.051125822668179666 0 0 0
206 1 -3.232447438146009 -8.250795902784425 -1.107064381230412 0 0 0
150 1 -1.5750124098395304 -6.532471535471441 -2.6716200356687843 0 0 0
194 1 -1.8831822123530113 -6.247487592551727 -0.18614946045427416 0 0 0
111 1 -12.319699825070472 -3.451919555560732 -2.995442102012241 0 0 0
322 1 -12.443825647556094 -3.3884313832862016 -0.5216627346325051 0 0 0
119 1 -7.2111287988959925 -4.208176985761872 -3.3732145488241105 0 0 0
120 1 -9.715845730139772 -4.04340560805295 -3.1032015208578034 0 0 0
24 1 -7.5951855840254545 -3.876235008770257 -1.0113255705070667 0 0 0
182 1 -10.02464261002862 -3.598976422840204 -0.7723297244998779 0 0 0
25 1 -5.139401756287574 -4.1681548899067185 -1.278253513086952 0 0 0
193 1 -2.7180120158728815 -4.490687387216816 -1.4767755555124253 0 0 0
986 1 -0.46367295536991016 -4.534328687229989 -1.8174135488370418 0 0 0
107 1 -13.488213413006603 -1.4770266725022108 -1.7830520709739037 0 0 0
110 1 -10.975503858504378 -1.5687431544910844 -2.012059366493098 0 0 0
118 1 -8.58210205234153 -1.9436434450319346 -2.296424123804224 0 0 0
643 1 -4.861317942127101 -0.2922462542698643 -1.670892571731379 0 0 0
116 1 -6.309070645716778 -2.044537353718569 -0.04882195001684231 0 0 0
117 1 -6.0722136600352385 -2.2118102033876514 -2.5007906418182344 0 0 0
3 1 -3.7217749680211494 -2.5624511733708317 -2.8921894127980217 0 0 0
115 1 -3.9697049286060313 -2.1262410599113384 -0.46109482589262996 0 0 0
1 1 -2.3217266548334674 -0.4759640290987992 -2.083564909725057 0 0 0
410 1 -1.587036786600322 -2.3513363092194286 -0.5979388199056608 0 0 0
195 1 -1.2805380232448513 -2.4878187007874875 -3.0733545916760203 0 0 0
374 1 -12.608402236763435 -13.487830252984283 1.6818586525721955 0 0 0
386 1 -11.330151237777505 -11.508767553974277 2.570811689725943 0 0 0
220 1 -13.382516294439519 -11.4686652028416 0.2767547283139571 0 0 0
376 1 -10.875654864284037 -11.733044171758884 0.15189780905296502 0 0 0
380 1 -10.118182034980306 -13.788823595079815 1.4237499365397035 0 0 0
381 1 -8.854723640309444 -11.704236483682424 2.4236149732264884 0 0 0
762 1 -7.47679114619543 -13.960340833099826 1.319875589941475 0 1 0
378 1 -8.339830424993167 -12.051721565458148 0.20632568381546612 0 0 0
399 1 -3.8114512633153943 -11.960624830492812 1.791289376810699 0 0 0
397 1 -6.228199945002298 -11.883705941257471 2.174887752249653 0 0 0
391 1 -5.407546010522921 -13.906441055069694 3.4306344921471172 0 0 0
393 1 -1.4453828837974232 -12.326996612801743 1.5494018912827023 0 0 0
463 1 -2.832263780519142 -14.092602822835747 3.0434291028043994 0 0 0
377 1 -12.187587002037034 -9.55596704489372 1.1632009583951923 0 0 0
375 1 -13.730688635484942 -11.15758904840018 2.7284823875029645 0 0 0
388 1 -9.681407903977892 -9.683437583408686 1.2762977652175973 0 0 0
406 1 -7.419425901204426 -9.714910529986263 3.2669728168870726 0 0 0
382 1 -7.199642215506811 -9.92055494190059 0.8736299215197452 0 0 0
205 1 -4.777506652033065 -10.147742185092092 0.4571893591158691 0 0 0
398 1 -5.05874610585513 -9.852870936790318 2.868427431603564 0 0 0
455 1 -2.581093762349827 -9.929896974451655 2.5505140428501285 0 0 0
213 1 -2.21528580445567 -10.406354425711612 0.1546055478324302 0 0 0
453 1 -0.14959869972979156 -10.279255207519743 2.295689470451933 0 0 0
330 1 -10.872277061260858 -7.647198086012296 2.1564203632091044 0 0 0
319 1 -13.356681291193654 -7.223657131942369 2.3573925709748877 0 0 0
389 1 -8.309026484022397 -7.653989841351119 1.9813555614838965 0 0 0
332 1 -9.132322277272724 -5.68801880895872 0.5584087417648238 0 0 0
390 1 -6.7219260742512725 -5.893257629866355 0.31443686058898024 0 0 0
408 1 -5.766370986002437 -7.923005071906588 1.5940562604324828 0 0 0
409 1 -4.725779000828224 -5.761600811748858 2.4471561525994794 0 0 0
400 1 -3.394474936880707 -8.043087180289568 1.3346071693946655 0 0 0
207 1 -1.0446239532466457 -8.311657893207006 0.9328270798672591 0 0 0
443 1 -2.11806735032949 -5.945599340122666 2.2170395711343787 0 0 0
454 1 -1.4545424835615552 -7.973670172146049 3.303219854742352 0 0 0
320 1 -11.600757071277624 -5.435102232738988 0.8393519920536825 0 0 0
342 1 -12.84902197017494 -3.2774262665056426 1.937663800060653 0 0 0
336 1 -12.088978830781217 -5.336940785420454 3.2309119814250984 0 0 0
353 1 -7.145090299521649 -5.605505685673098 2.708590550601585 0 0 0
338 1 -10.343817226668987 -3.4987576825099804 1.7041635533790505 0 0 0
331 1 -9.649614293176878 -5.5239418210133095 2.876872567710027 0 0 0
333 1 -7.975120056230389 -3.6910038411541777 1.363815915038705 0 0 0
355 1 -5.5291542856895415 -3.9881404307138517 1.2095603607822074 0 0 0
306 1 -3.4714393108449944 -3.928468520166925 3.3596955914289666 0 0 0
26 1 -3.1174031280842893 -4.036043592609916 0.8290175203889092 0 0 0
441 1 -0.7888525887465878 -4.298137332000016 0.7142364956290042 0 0 0
423 1 -0.8229435399018765 -3.952375286622395 3.2685569434152484 0 0 0
109 1 -11.187918476916483 -1.5484686405303787 0.39289603431033626 0 0 0
344 1 -11.601965564943054 -1.2214488535224408 2.858989049973463 0 0 0
325 1 -13.722861517643695 -1.4594452340650435 0.6258770493185004 0 0 0
339 1 -9.060679767332253 -1.5132134685375576 2.6042267524098257 0 0 0
340 1 -8.808467736320992 -1.5130090290911102 0.17945078453388952 0 0 0
366 1 -6.665508274484382 -1.7712499570013147 2.407378470084481 0 0 0
356 1 -4.301451325075561 -2.0059568194233943 2.022189977959936 0 0 0
803 1 -5.141211064763354 -0.03476475766874998 0.7351012574535254 0 0 0
1187 1 -0.5222819839141355 -0.3290258773184629 2.6043235350221217 0 0 0
304 1 -2.7749867907676293 -0.23744187368702363 0.41116090844455044 0 0 0
442 1 -1.8085424548273021 -2.1114183305991556 1.7643453435790235 0 0 0
1330 1 -0.20574611130454912 -0.33433102930593783 0.1864013567649785 0 0 0
305 1 -3.0597834810182416 -0.03314373798865766 3.0016319688357918 0 0 0
384 1 -12.80546546151708 -13.24374952081725 4.118075040251902 0 0 0
383 1 -13.049726861145741 -12.939803508420562 6.406024875878124 0 0 0
402 1 -10.607211275408279 -13.250265098206892 6.241038063897065 0 0 0
379 1 -10.480058149697063 -13.464049415900625 3.830190489908933 0 0 0
395 1 -8.053856338383447 -13.698233073257745 3.6308385940914256 0 0 0
394 1 -8.234213782627325 -13.306499976289633 5.966869688089908 0 0 0
449 1 -6.923090016150284 -11.39999415678438 6.894196480633958 0 0 0
457 1 -4.141206239184182 -11.825580054985036 4.125084005419147 0 0 0
396 1 -6.722966585039439 -11.669839567751811 4.468518895999871 0 0 0
459 1 -5.820061011043396 -13.53993311706638 5.759864481130467 0 0 0
458 1 -4.4758059118912 -11.569552221271305 6.529200993717005 0 0 0
439 1 -0.9092932741762638 -14.06983245617287 5.099263365300708 0 0 0
464 1 -3.2712114171177564 -13.754544167444894 5.427148745786372 0 0 0
462 1 -1.712137617612072 -11.863420516709942 3.7765471606274694 0 0 0
435 1 -2.0192107216538258 -11.687142546730879 6.281315397130339 0 0 0
385 1 -11.434437162134456 -11.304937404629122 5.074595840271371 0 0 0
328 1 -12.516779792430789 -9.221266280303764 3.7105123702754774 0 0 0
327 1 -12.635592730202035 -8.957056592634931 6.099270398149674 0 0 0
404 1 -9.073085485772294 -11.296286394720221 4.722165052867506 0 0 0
387 1 -10.0026184039497 -9.474407417197462 3.503691471536996 0 0 0
349 1 -10.32976079013174 -9.042054554161492 5.8348085119509285 0 0 0
405 1 -7.781437689927461 -9.448028040615704 5.625646243011875 0 0 0
447 1 -5.481185444117607 -9.664249617719255 5.164605138990449 0 0 0
456 1 -2.9348578008886737 -9.674628825187623 4.979494817546694 0 0 0
433 1 -0.5908275106358083 -9.893452121527389 4.664765805744569 0 0 0
334 1 -13.538459525104441 -7.032629301068663 4.906513041065626 0 0 0
329 1 -11.194915869707247 -7.075186298389645 4.586520859007049 0 0 0
351 1 -8.762849675842896 -7.402823487846721 4.3510666865941126 0 0 0
350 1 -9.018685389151125 -7.086206283584397 6.7611546464563546 0 0 0
407 1 -6.183725541860817 -7.535372345159976 3.9523455457215313 0 0 0
445 1 -3.7937982993684667 -7.759537530286131 3.768560508613337 0 0 0
310 1 -6.631334000033882 -7.4265945496581915 6.417954244928055 0 0 0
446 1 -4.088959484060233 -7.607055975334338 6.1270225351712 0 0 0
444 1 -2.50680563010995 -5.851876872783997 4.573531932628576 0 0 0
425 1 -1.7005980307006894 -7.777930439933882 5.854794420518608 0 0 0
1211 1 -0.4599444352217077 -5.835235322344117 6.728722479422686 0 0 0
1261 1 -0.1263242757631442 -6.1604422233995395 4.402476389657245 0 0 0
337 1 -10.835378561578187 -3.242091662026567 4.0728577585622965 0 0 0
335 1 -12.306692721986002 -4.930393865231444 5.782754633486075 0 0 0
341 1 -13.326818904748606 -3.015010928442292 4.58642047625105 0 0 0
370 1 -10.982563664338006 -2.8416333303680705 6.529900318513192 0 0 0
352 1 -7.480881943426684 -5.453704776658393 5.164493304516778 0 0 0
364 1 -8.376003131129979 -3.5327081836620238 3.859925541896736 0 0 0
362 1 -9.87758086367348 -5.1751518434705925 5.384392140811869 0 0 0
363 1 -8.557874126466526 -3.134952078811713 6.313840585628725 0 0 0
308 1 -5.054080620632179 -5.609414223068303 4.96397631702138 0 0 0
354 1 -5.928802426875689 -3.6687988083319976 3.68602788115869 0 0 0
307 1 -3.7384534854932543 -3.640909883366147 5.814248524944656 0 0 0
295 1 -6.143494951268118 -3.5767270631273202 6.053643822023929 0 0 0
424 1 -1.398968585508145 -3.901452333976371 5.603237937827281 0 0 0
1380 1 -13.45508214870004 -2.689927995394852 6.892426430330804 1 0 0
343 1 -11.886574684069988 -1.0260814455704477 5.261353057065744 0 0 0
372 1 -9.45339074876766 -1.185055670696988 4.969886677352076 0 0 0
365 1 -6.983907788055869 -1.4397909414730545 4.85255252020773 0 0 0
293 1 -4.473099346311029 -1.7371991596005998 4.351499819478001 0 0 0
294 1 -4.8257102129443314 -1.5103596130386894 6.915672658942437 0 0 0
1186 1 -0.01424734729881294 -2.079377561451164 6.312751364107918 0 0 0
270 1 -2.0305454655108424 -2.050074897706944 4.19251641491995 0 0 0
260 1 -2.4202140509889745 -1.6634575084842353 6.634687802028086 0 0 0
401 1 -11.039861691721235 -12.9999084338563 8.654023445817352 0 0 0
345 1 -13.494413109688901 -12.731545458710457 8.804449912064673 0 0 0
451 1 -8.58805583044201 -13.157589586887493 8.374779812315058 0 0 0
460 1 -6.090578030924693 -13.371848404698365 8.176432929374599 0 0 0
437 1 -3.6271577540290956 -13.66145756238396 7.723012941199233 0 0 0
438 1 -3.941860658208272 -13.47734787960431 10.129007972273463 0 0 0
429 1 -4.776519336516694 -11.50489661860845 9.02832275583738 0 0 0
431 1 -6.483765746166104 -13.253750498054586 10.399369421848316 0 0 0
412 1 -1.5114191759464664 -13.729097336878967 9.976483960426059 0 0 0
436 1 -2.2971481940998135 -11.621126588707604 8.709301739557922 0 0 0
440 1 -1.1939300427871604 -13.737489447790354 7.498484944303456 0 0 0
414 1 -0.07179368544011488 -11.852120730226577 8.366180017925263 0 0 0
347 1 -11.803173488182818 -10.952750760421223 7.335163852444655 0 0 0
348 1 -10.567492574271727 -8.95068540486906 8.359456554753386 0 0 0
346 1 -12.29614182024421 -10.806338929583971 9.746702539265975 0 0 0
358 1 -13.003977792311707 -8.63508312999008 8.489957556183544 0 0 0
403 1 -9.359263105248207 -11.002927003764036 7.118042951615735 0 0 0
450 1 -7.237182776700421 -11.172180274882827 9.277267341842094 0 0 0
312 1 -8.070189398317616 -9.083426873195918 7.992708429805255 0 0 0
314 1 -9.801407507736194 -10.891270996908645 9.486176805059937 0 0 0
313 1 -8.56731047037328 -8.772425495663125 10.349441377455978 0 0 0
448 1 -5.680229849790502 -9.489330631014733 7.713142128777434 0 0 0
276 1 -6.128373636680626 -9.080142519921848 10.016858132736495 0 0 0
428 1 -3.626390473919894 -9.48353629737124 9.886121416978224 0 0 0
427 1 -3.3958545270313785 -9.702631948776478 7.428997631429517 0 0 0
434 1 -0.7827330408156961 -9.583873226938632 7.150688831411522 0 0 0
419 1 -1.1679147016065414 -9.491835530349203 9.425223657471026 0 0 0
360 1 -11.517108591586396 -6.8827088630323505 7.009021709551472 0 0 0
359 1 -11.852614902915677 -6.718045351411261 9.452532787841594 0 0 0
299 1 -9.421803998201852 -6.871987817934939 9.024564404081904 0 0 0
311 1 -6.931368974242071 -6.998710369750864 8.923156672122296 0 0 0
274 1 -4.547830826732422 -7.448895750768055 8.52212142105557 0 0 0
426 1 -2.0107152246490614 -7.6069847087356175 8.199796309962029 0 0 0
272 1 -2.914279997410347 -5.716672124213767 7.150081390752931 0 0 0
246 1 -0.7670783950782507 -5.745723978313434 9.15361438896889 0 0 0
368 1 -12.765754381252842 -4.712619135298368 8.12025166428409 0 0 0
289 1 -10.59423740528086 -4.637309490736611 10.211784933403134 0 0 0
361 1 -10.258357220024742 -4.802501399775105 7.845798366766811 0 0 0
297 1 -7.839139350165487 -5.083800299872522 7.544871763472653 0 0 0
298 1 -8.102405914807289 -4.824916071456466 9.94064695777194 0 0 0
309 1 -5.3812114220151255 -5.372388496865355 7.3079494962492575 0 0 0
262 1 -4.080587504815751 -3.500451924662098 8.26219431076581 0 0 0
296 1 -6.5773633433241665 -3.0166548960013255 8.49957905044592 0 0 0
264 1 -5.5817164922782805 -5.109678969491474 9.727267517309308 0 0 0
271 1 -1.5619680110863694 -3.5983564898105413 7.8971651126857125 0 0 0
273 1 -3.0988515066271614 -5.536938292095025 9.612033957646414 0 0 0
240 1 -1.9156651268977534 -3.4723434484867113 10.32676474523063 0 0 0
369 1 -11.370231993118978 -2.6585241705536866 8.984513320665958 0 0 0
373 1 -12.293339858328073 -0.6450660835458315 7.629483617925192 0 0 0
818 1 -12.688213753209208 -0.40573337057375625 9.982117580262432 0 0 0
1379 1 -13.783137681947453 -2.3659208823144127 9.193992590274938 1 0 0
287 1 -8.975691389301712 -2.821264790886003 8.841509186213695 0 0 0
281 1 -10.21156496314179 -0.5963843140886933 9.84635033145522 0 0 0
285 1 -7.372405973091717 -1.1690751802985986 7.111547586483013 0 0 0
371 1 -9.83109200020066 -0.9685660950877573 7.403131052858498 0 0 0
286 1 -7.769812371077244 -0.7790954257843783 9.638728956365053 0 0 0
254 1 -5.276819820152191 -1.1837348431932746 9.188179310433721 0 0 0
261 1 -2.7156384611558533 -1.3802332497829664 9.069277666497943 0 0 0
245 1 -0.2979390767234147 -1.6619643714953263 8.752196342224494 0 0 0
316 1 -11.433889730928223 -12.620975760903399 11.096533026949636 0 0 0
318 1 -11.865128732037377 -12.300848215772863 13.396182604051425 0 0 0
1307 1 -13.797244232908422 -12.374419652882123 11.389660860849162 1 0 0
452 1 -8.953830896141724 -12.952418823655062 10.737357824544045 0 0 0
280 1 -9.233360136632957 -12.479606030863824 13.056555407469656 0 0 0
432 1 -6.869465192101354 -12.643500411139861 12.664113841022449 0 0 0
415 1 -4.322187209029808 -13.041478207900061 12.483930890794284 0 0 0
413 1 -0.36811319695987343 -11.471099805158687 10.776982881899336 0 0 0
411 1 -1.8992089394448417 -13.39139227009738 12.348008303830834 0 0 0
421 1 -0.7031288295424769 -11.483604327389065 13.326611957612865 0 0 0
417 1 -2.8277632123667793 -11.380652833349036 11.121788254405356 0 0 0
301 1 -11.122203144384908 -8.649478608492789 10.58911862673947 0 0 0
303 1 -12.704631753068655 -10.41214497227465 12.111896296904078 0 0 0
279 1 -8.087177800744524 -10.48390922448783 13.764841619371659 0 0 0
315 1 -10.143639172424997 -10.563378286165536 11.834633997104323 0 0 0
278 1 -7.788489342195129 -10.71381137165189 11.464443313376783 0 0 0