LAMMPS data file via write_data, version 23 Jun 2022, timestep = 0

1863 atoms
3 atom types

-13.612950238039941 13.612950238039941 xlo xhi
-13.820556611376643 13.820556611376643 ylo yhi
-14.512146510999926 14.512146510999926 zlo zhi

Masses

1 55.847
2 1.008
3 1.008

Atoms # atomic

99 1 -10.978821053252508 -11.980224875980845 -13.537541381386921 0 0 0
997 1 -13.29656911571959 -12.221497014066713 -13.441895446626695 1 0 0
105 1 -10.233013475843611 -13.58872159762295 -11.730473099401314 0 0 0
118 1 -8.47138396079788 -12.01804048504232 -13.475429973288136 0 0 0
561 1 -7.690596915887633 -13.447533820885369 -11.814394523198654 0 1 0
111 1 -5.959752030232191 -11.893697174222822 -13.430816243201242 0 0 0
431 1 -3.4682446872307704 -11.938866172799163 -13.364472771057251 0 0 1
134 1 -5.186629049368117 -13.61703841085416 -11.645252698461455 0 0 0
464 1 -0.9988346497149205 -11.995005956045578 -13.514201048529495 0 0 1
1084 1 -0.2879199994396391 -13.490078309366607 -11.740744184068072 0 0 0
613 1 -2.6642337951775232 -13.552749863488296 -11.702368590218343 0 1 0
25 1 -11.980057471219544 -7.499455244334298 -12.483112286066387 0 0 0
122 1 -12.755146012156743 -9.821051352941275 -13.095031205587702 0 0 0
993 1 -13.46000989591061 -6.266449289043029 -7.997805132562997 1 0 0
100 1 -10.208025482277488 -9.712079358876796 -12.922465615601466 0 0 0
113 1 -7.766502799240945 -9.809648697113692 -12.986508400816431 0 0 0
115 1 -9.599324792373613 -7.536971562382514 -12.454466905023436 0 0 0
108 1 -7.184846483017581 -7.3937206213189866 -12.454662171052387 0 0 0
107 1 -5.342058197117282 -9.716966649168004 -13.022200042770674 0 0 0
24 1 -4.510089476786048 -7.534868014258184 -12.465348431727906 0 0 0
26 1 -2.774496497750947 -9.675544319273365 -12.896751403741177 0 0 0
14 1 -2.0509189632800346 -7.3805441922854875 -12.268730424866344 0 0 0
1094 1 -0.31631848917396255 -9.785256930776548 -12.851389831025266 0 0 0
46 1 -11.17877714285592 -5.209068362796858 -11.999849674263539 0 0 0
1374 1 -12.855122366698547 -5.885976724691623 -14.148267265166188 1 0 1
34 1 -10.301893933068746 -5.887679959465612 -14.132386394461728 0 0 0
110 1 -8.723885642486604 -5.226481625061252 -11.783805150567261 0 0 0
109 1 -7.906652956435512 -5.810621159830031 -14.004344126811736 0 0 0
19 1 -9.604618931982152 -3.6227104913779247 -13.618333015476884 0 0 0
40 1 -7.136283567891017 -3.4387967924076186 -13.659167709541169 0 0 0
131 1 -6.28925940251709 -5.164914520349567 -11.920683543895072 0 0 0
129 1 -5.4332465375107315 -5.771533722700925 -14.144044703401962 0 0 0
156 1 -3.79457586802309 -5.158492557154313 -11.950791068431734 0 0 0
22 1 -4.569947703067507 -3.556145205776385 -13.550016603790054 0 0 0
13 1 -1.2732588820467416 -5.084005677010058 -12.023841482860863 0 0 0
1178 1 -0.3676862329780537 -5.7868808468040935 -14.093259129465757 0 0 1
32 1 -2.820638253459075 -5.618526139693474 -14.068345022737134 0 0 0
12 1 -2.130998093588895 -3.4826165332251833 -13.654108733522934 0 0 0
1362 1 -12.13782969812514 -3.647173189507159 -13.565751582071591 1 0 1
42 1 -11.255745921849986 -1.281824209162128 -13.220087596075238 0 0 0
27 1 -8.712984343083189 -1.2773122695532049 -13.106074835796841 0 0 0
38 1 -6.340556279151713 -1.2622359837689796 -13.080491541108879 0 0 0
28 1 -3.873038606055161 -1.2664012145737047 -13.20996227722327 0 0 0
16 1 -1.3139203711709033 -1.1642388127740926 -13.192845741439292 0 0 0
970 1 -10.94109505689002 -12.92951404881825 -9.609097987648394 1 0 0
536 1 -11.92691872632563 -11.29349664126993 -11.196366752389627 0 1 0
103 1 -13.326305445050687 -12.867539210472888 -9.683859236457415 0 0 0
121 1 -10.416457679019581 -10.63815777657033 -9.056169603981061 0 0 0
119 1 -9.470085125427985 -11.26307561702453 -11.267354768468909 0 0 0
117 1 -8.505795242549553 -13.036603315721765 -9.547216673662884 0 0 0
142 1 -7.673235228042707 -10.698506872437754 -8.974714181486789 0 0 0
112 1 -6.903306072086661 -11.235755625995973 -11.213541876939802 0 0 0
126 1 -4.346111701171441 -11.313665166375015 -11.2631771064298 0 0 0
140 1 -6.136649920986168 -12.90099206372944 -9.53134007813345 0 0 0
135 1 -5.162947638963548 -10.598761693653064 -8.940929137994384 0 0 0
133 1 -3.583725084380987 -13.012461553096001 -9.530554443820026 0 0 0
152 1 -1.8783113381322494 -11.424053764144508 -11.272279575363372 0 0 0
160 1 -0.9591640710812879 -12.896930896892934 -9.378599745335325 0 0 0
162 1 -2.7153431587349512 -10.59700457794485 -8.991929962766775 0 0 0
153 1 -0.3376098227576598 -10.69811175183462 -8.95978001832064 0 0 0
120 1 -10.991123683885814 -9.01257381404536 -10.790742091431165 0 0 0
90 1 -1.3750259640368476 -0.21235469076916047 -2.647577018323057 0 0 0
114 1 -8.580450411938873 -9.076972974578577 -10.649076989245206 0 0 0
138 1 -7.841656166329112 -6.74235583445633 -10.224405668635685 0 0 0
136 1 -6.223944002307019 -9.05827832853543 -10.680484654255968 0 0 0
128 1 -3.7483411799643065 -9.047693733952514 -10.679124074965088 0 0 0
154 1 -1.1938331163623754 -9.096802830663144 -10.685956129620049 0 0 0
116 1 -10.318418190407048 -6.8482970220408985 -10.162212725764016 0 0 0
1020 1 -12.885283248959079 -6.949145822144045 -10.220089007257878 1 0 0
37 1 -12.125312498015361 -4.697541761198746 -9.798290544522393 0 0 0
44 1 -9.60375545673983 -4.610204476203583 -9.719799196878357 0 0 0
132 1 -7.038552377400573 -4.496697948251391 -9.797368662659155 0 0 0
130 1 -5.4532765841029 -6.752186359236192 -10.269232015688939 0 0 0
158 1 -4.638741259045901 -4.585057189280553 -9.657445454700774 0 0 0
155 1 -2.988937242051845 -6.930010204463894 -10.092116782048516 0 0 0
184 1 -0.6081007572014343 -6.728177238442749 -10.201033601077693 0 0 0
11 1 -2.1697851159970885 -4.641760253771187 -9.63220853439955 0 0 0
98 1 -10.535326819726466 -2.9034535989052905 -11.410671055239767 0 0 0
1005 1 -12.240068134924147 -0.7229940923281983 -10.956629012187967 1 0 0
29 1 -11.323108327398934 -2.233071188318359 -9.081784906160834 0 0 0
91 1 -2.9859788039246116 -1.842394160282268 -0.729700257172551 0 0 0
39 1 -7.889282273817597 -2.934651192688035 -11.443379702754626 0 0 0
33 1 -9.7814657204907 -0.7421261394378664 -10.874318458267373 0 0 0
94 1 -7.191771999919367 -0.6746955437394622 -10.929444539173504 0 0 0
41 1 -8.915448075113392 -2.2496937900701663 -9.156900243788261 0 0 0
20 1 -5.4125125819694 -2.9067196311362427 -11.417897970723837 0 0 0
53 1 -6.220613755493475 -2.218498912097857 -9.22315851171853 0 0 0
9 1 -3.7600843415154888 -2.297002150419617 -9.266379816860635 0 0 0
95 1 -4.672842975992214 -0.556629702619329 -10.916169387823576 0 0 0
10 1 -2.9126946567399887 -2.868746015682696 -11.443577002375905 0 0 0
17 1 -0.5228470482227134 -2.8016610934344524 -11.364687784242031 0 0 0
15 1 -2.2215098183551074 -0.5811569594311443 -11.029704127739386 0 0 0
4 1 -1.3471260804593825 -2.396460979186193 -9.123781730755555 0 0 0
123 1 -11.706628810198078 -12.114877457063862 -7.3780394914939915 0 0 0
146 1 -9.101676217118651 -12.34434985168919 -7.2712413527250614 0 0 0
168 1 -4.48112825236972 -12.32937055669898 -7.383348620596782 0 0 0
161 1 -1.916008435914497 -12.399858919189127 -7.270377004343599 0 0 0
1027 1 -11.788367340950302 -8.495127678417896 -8.504681353693966 1 0 0
148 1 -10.920804351388995 -10.04606266431329 -6.661189602049943 0 0 0
1011 1 -12.582109109549048 -7.869808324209296 -6.278421590978326 1 0 0
1026 1 -13.426782785527488 -10.000779820080696 -6.8780712725404 1 0 0
145 1 -10.197667640663722 -7.713590600298742 -6.159026995750816 0 0 0
144 1 -9.498074314012527 -8.445559084090878 -8.447916632970163 0 0 0
143 1 -8.622001733804769 -10.040599725087873 -6.84392560124506 0 0 0
172 1 -7.750733224344248 -7.826065131329328 -6.247338977926498 0 0 0
137 1 -6.968616424770664 -8.335755577033993 -8.524724256103488 0 0 0
164 1 -4.474428602111491 -8.461493956525057 -8.465522668568683 0 0 0
170 1 -6.096465925317537 -10.122966897902995 -6.773822197269033 0 0 0
165 1 -5.2883247406773695 -7.75582059095636 -6.352108051835637 0 0 0
163 1 -3.5534172577299845 -10.155209059474128 -6.7892659877650985 0 0 0
192 1 -2.0343860570279357 -8.414137107315087 -8.465169081949213 0 0 0
191 1 -1.0872425109797987 -10.016479206422005 -6.624726379218933 0 0 0
194 1 -2.8468087917758282 -7.824405602157887 -6.209962380123709 0 0 0
185 1 -0.36215764884946644 -7.739861373836944 -6.2197851218429925 0 0 0
1021 1 -12.984395511043065 -3.879911429608992 -7.467219413337241 1 0 0
49 1 -11.14247822274692 -6.093918207948626 -7.996975606947837 0 0 0
45 1 -10.50029758080992 -3.804351178778335 -7.511445228259269 0 0 0
1072 1 -13.49236852928585 -8.068013591085556 -0.14577639499512784 1 0 0
139 1 -8.601830304539401 -6.236506824079931 -7.836298029247344 0 0 0
56 1 -8.040585276834129 -3.9052233366446014 -7.549248455108892 0 0 0
166 1 -6.219686297333594 -6.063066547860206 -8.026859003254538 0 0 0
159 1 -5.459115277305852 -3.816283735259125 -7.497884501073249 0 0 0
157 1 -3.6953159684219123 -6.303883744907201 -7.827660476455025 0 0 0
196 1 -4.568931156159088 -5.521816501598616 -5.795979669235386 0 0 0
5 1 -0.3578760000439978 -3.8828959343276406 -7.539751001252493 0 0 0
188 1 -2.9392256081272787 -3.912552268782008 -7.449932096837789 0 0 0
186 1 -1.2452498093991924 -6.124402695222048 -7.849651254663387 0 0 0
187 1 -2.1078405499307937 -5.422413230691038 -5.7521834346952385 0 0 0
47 1 -12.181920830728881 -1.518494568101552 -6.8965908787451955 0 0 0
58 1 -9.742787368870157 -1.524860549226183 -6.981225333201703 0 0 0
54 1 -7.193853254514388 -1.497623250349033 -7.061191650580506 0 0 0
69 1 -4.781943601746653 -1.7408881142501134 -6.973526220504739 0 0 0
3 1 -2.322014471224179 -1.5664423853261713 -6.965838054084802 0 0 0
86 1 -5.4753071098826105 -1.9210731424559384 -0.7107772483608663 0 0 0
1060 1 -13.42276827789239 -11.036889140726734 -2.8705096251154405 1 0 0
149 1 -12.610346079769363 -11.684647073792242 -5.1447037799772275 0 0 0
150 1 -11.890550011256344 -13.228230158849785 -3.234054847138463 0 0 0
147 1 -10.119678951294459 -11.76310911961574 -5.052598489745002 0 0 0
175 1 -7.5976255570810665 -11.647693540441143 -5.119349236038515 0 0 0
179 1 -9.282659141937899 -13.32193393452717 -3.2485555206645724 0 0 0
670 1 -6.896851187679023 -13.239342222324213 -3.2198134096515894 0 1 0
176 1 -8.48413799584969 -10.887465345347028 -2.8563292116029224 0 0 0
169 1 -5.227088562205468 -11.657677012964431 -5.015690927539671 0 0 0
205 1 -4.422963115726562 -13.272040303620994 -3.3805495273929793 0 0 0
207 1 -6.0446176817545645 -10.970409063155998 -2.8303288226577603 0 0 0
222 1 -0.23077691590535387 -11.713228782607436 -4.870218306663146 0 0 0
199 1 -2.632024712177449 -11.682335904057148 -5.088432080322775 0 0 0
198 1 -1.7833085358854301 -13.273438135826758 -3.384448395508814 0 0 0
84 1 -3.9444268084675116 -0.3030670712156418 -2.48876524275037 0 0 0
52 1 -11.82095766374216 -9.511605415840336 -4.605806221754408 0 0 0
65 1 -11.071524587358116 -7.241328595214458 -3.9239717464817208 0 0 0
177 1 -9.449162022368938 -9.358400838315568 -4.43462955175313 0 0 0
173 1 -8.549729661425618 -7.106612166167478 -4.031105345534691 0 0 0
171 1 -6.9455142979132445 -9.28402507986014 -4.5601155963075914 0 0 0
201 1 -4.52957933305445 -9.381433852623015 -4.608354020680233 0 0 0
203 1 -6.130106134978287 -7.02388320250367 -4.021981233506914 0 0 0
195 1 -3.627797935665905 -7.116769586300098 -3.9550057013835076 0 0 0
193 1 -1.9278589358313418 -9.357365935690222 -4.518063792932592 0 0 0
218 1 -1.1166113464015073 -7.016227156215246 -3.9811269717158186 0 0 0
50 1 -12.040657127069835 -5.392511916439954 -5.880570002980301 0 0 0
67 1 -12.858473983525633 -4.826737448784497 -3.5189021314077706 0 0 0
61 1 -10.33314885556612 -4.822381774826246 -3.5299505518048964 0 0 0
167 1 -7.083384117533881 -5.49596454508006 -5.8940809688392655 0 0 0
60 1 -9.526966435145415 -5.442798380414747 -5.777603190608827 0 0 0
75 1 -7.8527267669440555 -4.687994176226264 -3.680038185234295 0 0 0
197 1 -5.55837510863782 -4.643900925913496 -3.578806019430271 0 0 0
220 1 -3.0280228697247917 -4.767963946706944 -3.610522775506528 0 0 0
213 1 -0.43081885550251364 -4.841560290500402 -3.6597220521309346 0 0 0
62 1 -11.205792144672387 -3.2133787687672655 -5.304541750463672 0 0 0
1079 1 -13.039230959048554 -0.9259329989779985 -4.525471691019524 1 0 0
59 1 -10.628277703802878 -0.8946222461109397 -4.725977804720813 0 0 0
63 1 -12.142687382440306 -2.6083625030065534 -3.1167772276533903 0 0 0
57 1 -8.802210347698459 -3.1913243805994966 -5.335874688772595 0 0 0
73 1 -8.096482713316448 -0.8925290095378191 -4.7460947555200885 0 0 0
72 1 -7.106113295564774 -2.5382524196216707 -2.9363989533481316 0 0 0
77 1 -9.63423918366647 -2.5318407153423177 -3.0476507349696327 0 0 0
71 1 -6.346327327473593 -3.122494734527347 -5.265783778569393 0 0 0
189 1 -3.8643657118916597 -3.1776472715180155 -5.233748672850348 0 0 0
70 1 -5.6046520421994686 -0.8859146276784653 -4.629877101018538 0 0 0
85 1 -4.578641840888595 -2.47800319960802 -2.9366371885563325 0 0 0
215 1 -2.196957000788336 -2.4998963640049716 -3.0986373305574126 0 0 0
214 1 -1.3596835290869276 -3.151875991061109 -5.400126983934131 0 0 0
83 1 -3.15705005061546 -0.9642452533222468 -4.797019334232541 0 0 0
1 1 -0.5931245791513557 -1.0185281887582285 -4.810301633646141 0 0 0
181 1 -10.994399147444192 -10.931488220374668 -2.8760573634594824 0 0 0
1070 1 -12.589281255631755 -12.595323698734017 -1.1654577196427738 1 0 0
180 1 -10.080054962005502 -12.641817925677497 -1.1175483522833538 0 0 0
210 1 -7.652786354972902 -12.610568531255439 -1.057048146944501 0 0 0
208 1 -6.900732987342535 -10.261188541376153 -0.5433924042995244 0 0 0
200 1 -3.574387100209991 -11.08087013915507 -2.965502409291103 0 0 0
206 1 -5.156383124309032 -12.619458588101798 -1.1387429861154263 0 0 0
516 1 -0.34420098887022554 -12.69952081403689 -1.1501049710053621 0 1 0
224 1 -1.185964048384081 -10.95233354122672 -2.7286461776090487 0 0 0
228 1 -2.778196238113555 -12.727248872045756 -1.1228705708588986 0 0 0
225 1 -2.0636120714788255 -10.504543299871475 -0.5266284934895342 0 0 0
183 1 -11.784331661796806 -10.421939724915472 -0.6318837170009033 0 0 0
182 1 -11.055482711578836 -8.158778239834547 -0.07873125790846736 0 0 0
68 1 -12.708288913736451 -8.82980223780354 -2.3279781090784457 0 0 0
178 1 -10.205010124902794 -8.840325437189502 -2.216225269446447 0 0 0
231 1 -0.6397852730370577 -1.7908021217894703 -0.9029286557306886 0 0 0
211 1 -9.422807252911348 -10.363697427724038 -0.5918301611302024 0 0 0
209 1 -7.595006250728847 -8.578531082031667 -2.2137940781573775 0 0 0
390 1 -8.644606836960845 -8.065301766014208 -0.11751327765797193 0 0 0
229 1 -4.383086910287391 -10.355680703856462 -0.7036193817851153 0 0 0
396 1 -3.6411936147905113 -8.058356923313656 -0.05109040620275174 0 0 0
202 1 -5.182454105058531 -8.635762241636549 -2.180715238479811 0 0 0
97 1 -3.0908346079157614 -0.010893015736799683 -8.827252983595315 0 0 0
1055 1 -13.483149742902068 -7.139908463420388 -4.062102938145529 1 0 0
217 1 -0.3809877248344957 -8.643200437456652 -2.263156749488754 0 0 0
226 1 -2.762661168562955 -8.73756625292297 -2.2808870172313664 0 0 0
66 1 -11.94482594322421 -6.520807603298853 -1.7929221094612693 0 0 0
81 1 -11.232314860855048 -4.111919193671529 -1.4345175389394722 0 0 0
80 1 -9.486814845532237 -6.505051155534305 -1.8587856187475253 0 0 0
76 1 -8.649210581932113 -4.205699268434929 -1.4288314399500912 0 0 0
204 1 -6.989987709327839 -6.327606513350102 -1.8826543942821257 0 0 0
227 1 -4.533039387356194 -6.310561037952047 -1.8095717513309282 0 0 0
221 1 -3.841626841148834 -4.09307424503605 -1.3729014074104455 0 0 0
88 1 -6.187104131552982 -4.106197330997411 -1.2992441275450357 0 0 0
233 1 -1.3324510016960645 -4.045643297189928 -1.3432537069631394 0 0 0
219 1 -2.104175934030488 -6.334827953412857 -1.8592212167925553 0 0 0
78 1 -10.38668878180786 -1.8729182020827473 -0.8330126737756167 0 0 0
79 1 -11.385062260200788 -0.35196333107885636 -2.422311772676519 0 0 0
1078 1 -12.955229081707882 -1.9084045483692336 -0.833404234601197 1 0 0
89 1 -7.998373867153002 -1.8665822844217246 -0.9137243888015618 0 0 0
74 1 -8.960060357308567 -0.29244654811854964 -2.5237464060805426 0 0 0
87 1 -6.508265642883201 -0.21799735657661046 -2.5724481281049805 0 0 0
1081 1 -13.556208012881935 -4.255052840073908 -1.2745554619981547 1 0 0
417 1 -1.1642825461137782 -8.058090559948603 -0.18943090369335813 0 0 0
104 1 -13.389534032765575 -9.348849792640383 -10.736819243825856 0 0 0
1054 1 -13.00433211595528 -0.0242340339701137 -8.609062676661674 1 0 0
382 1 -11.02996608394459 -11.903235721205144 1.1439013062604264 0 0 0
380 1 -12.499218125732622 -13.619877630677538 2.7521658021050435 0 0 0
301 1 -13.429679110575071 -11.96388461206309 1.0573131281870154 0 0 0
389 1 -8.473454651040806 -11.989688778999277 1.1056302374603355 0 0 0
383 1 -7.6533751249520146 -13.62510594246329 2.708468094841024 0 0 0
299 1 -13.433707009115585 -12.935093700540998 5.00097446748855 0 0 0
384 1 -5.998232409976671 -11.972075698583748 1.1706624649289434 0 0 0
413 1 -3.645537841510386 -11.907823544511674 1.179779862236563 0 0 0
394 1 -5.215982806959014 -13.587342858654715 2.699408152909026 0 0 0
408 1 -1.0762212086806482 -12.048013803280114 1.020655302437147 0 0 0
710 1 -2.6938983982620908 -13.59640931787155 2.8191410795727947 0 1 0
1375 1 -0.14995642635563478 -13.615282182307718 2.837790937264 0 0 0
297 1 -12.818418567445354 -9.720389003504824 1.6044140455339608 0 0 0
307 1 -11.954284032896739 -7.444346750276214 1.9644081330523306 0 0 0
303 1 -10.266800975685452 -9.643169124322876 1.5367330911686103 0 0 0
402 1 -7.7881471655824095 -9.628214951821631 1.6401871492885114 0 0 0
304 1 -9.495081384203814 -7.448923468466169 2.069924737210915 0 0 0
323 1 -7.0743939780308445 -7.509770839207892 2.256835060557922 0 0 0
395 1 -5.254335684509773 -9.76081485696488 1.5488786227770817 0 0 0
426 1 -4.4311966877107665 -7.542058975270138 2.0458287966977906 0 0 0
415 1 -2.7232990507669257 -9.736707070310656 1.6575149908685596 0 0 0
416 1 -1.9688657582598026 -7.42047425413566 2.000882017098075 0 0 0
409 1 -0.22256103136885663 -9.758790338423879 1.5877717335657593 0 0 0
308 1 -11.280443900551784 -5.193608553546614 2.7353940970981014 0 0 0
298 1 -12.792545546430343 -5.733604603598732 0.35693467911337606 0 0 0
309 1 -10.352679683044933 -5.817924688061696 0.29289496479394117 0 0 0
332 1 -8.855283427604906 -5.118096490810133 2.5250169707171928 0 0 0
305 1 -7.822772142530337 -5.782164556576843 0.3209234956119005 0 0 0
334 1 -7.172305923898402 -3.5376070763635408 0.9891812514204652 0 0 0
324 1 -6.336342430530279 -5.207185475727746 2.5978035820432765 0 0 0
405 1 -5.346316324251893 -5.759992957829743 0.46597420622787844 0 0 0
353 1 -3.8707962113811423 -5.297327922749089 2.59244106328277 0 0 0
325 1 -4.63130889331161 -3.419598429669824 0.9272865712183052 0 0 0
418 1 -0.4547045836014796 -5.771585204157809 0.380798948858347 0 0 0
445 1 -1.349234078575229 -5.239957153547868 2.673028249299893 0 0 0
428 1 -2.8795913810203153 -5.765696169673172 0.3155895268366713 0 0 0
313 1 -12.143481674818414 -3.5132824966474185 0.9174657916817974 0 0 0
82 1 -11.11006034501078 -1.3158066709310443 1.3861971156765485 0 0 0
310 1 -9.590983986499888 -3.6121330282193043 0.8935253951819071 0 0 0
341 1 -8.822100347795423 -1.3796419349691078 1.394863083068966 0 0 0
354 1 -3.737524777435336 -1.2033920171605903 1.4929542928532555 0 0 0
366 1 -6.389083149569809 -1.271576752316399 1.526952247826216 0 0 0
429 1 -2.284835767242612 -3.6277221885139497 0.958240193611827 0 0 0
284 1 -1.233677407812145 -1.365865934026095 1.4763088421336175 0 0 0
302 1 -11.848753746398625 -11.240613779223604 3.439270751607719 0 0 0
386 1 -10.869324364784351 -12.9590538379761 4.906386956836304 0 0 0
300 1 -12.679542279288434 -10.658332867635123 5.601937909693163 0 0 0
326 1 -13.473961597130023 -10.115458861513165 7.756263821603085 0 0 0
319 1 -10.158047096941443 -10.683317013455458 5.543269825787842 0 0 0
388 1 -9.318778296556225 -11.293832537989251 3.2711965507275913 0 0 0
400 1 -8.41109672532305 -13.00228869120152 4.961438513295757 0 0 0
401 1 -7.748914917594571 -10.71977965287774 5.466197548660368 0 0 0
393 1 -6.996476419287137 -11.332556356113749 3.3277767366519164 0 0 0
424 1 -4.577556375520814 -11.304762678185114 3.4070526465528808 0 0 0
392 1 -5.941164917967663 -12.975453231326336 5.026899314271649 0 0 0
412 1 -5.31209933108102 -10.753211589348442 5.647256347729652 0 0 0
411 1 -3.601705172091192 -13.039078873171064 4.973021704595233 0 0 0
407 1 -1.8897781736301074 -11.37457935605417 3.2271741746020908 0 0 0
406 1 -1.092325896231472 -12.984745391325632 4.922894649968924 0 0 0
457 1 -2.785625095768676 -10.83644492838133 5.597037907879692 0 0 0
1255 1 -0.4079608649951041 -10.66244399700173 5.438379389965071 0 0 0
328 1 -11.049221915952518 -9.041095958654612 3.739832892276045 0 0 0
1174 1 -0.5502333441519482 -1.913913614021416 13.688519550210192 0 0 0
321 1 -8.547505262494537 -9.10836136983048 3.8478795736579734 0 0 0
403 1 -6.043363500137034 -9.169805527882522 3.7231555100939318 0 0 0
414 1 -3.6465244498432483 -9.072606481382277 3.785239762916081 0 0 0
455 1 -1.1228586826505733 -9.138239705080196 3.7730102231345626 0 0 0
1250 1 -0.4328174261569355 -6.822603210417787 4.396953103754626 0 0 0
336 1 -12.802824765767097 -6.8266523260375775 4.287078935426205 0 0 0
338 1 -12.071334631314603 -4.446390341339548 4.828332527068621 0 0 0
330 1 -10.320703854753393 -6.763576220443683 4.2404235658775455 0 0 0
322 1 -7.922781046643385 -6.736225123366967 4.288018462191523 0 0 0
331 1 -9.568402629090926 -4.537142823477488 4.799935968102087 0 0 0
364 1 -7.021284326216116 -4.494684400274744 4.804719977387872 0 0 0
351 1 -5.436765987432958 -6.816711865888968 4.352022148037165 0 0 0
287 1 -4.5985629488033055 -4.597271357941082 4.8685228081503595 0 0 0
427 1 -2.94663604918812 -6.9121069639082595 4.20540258739285 0 0 0
446 1 -2.145294071616334 -4.657874168982161 4.913040079195461 0 0 0
311 1 -12.945039337533613 -2.8793835985528524 2.9583571625098024 0 0 0
340 1 -10.450795088294278 -2.833801904994873 3.1243633288631045 0 0 0
760 1 -12.247284511467614 -0.589041591346076 3.5046260422906066 0 0 0
339 1 -11.359970743497119 -2.2274542500119665 5.220751993868486 0 0 0
306 1 -13.576034412639693 -5.241224919345951 2.5657753830872814 0 0 0
333 1 -8.019194300556602 -2.8159947850109255 3.1597819572688266 0 0 0
375 1 -8.838435006716784 -2.2863252585429077 5.318734390894004 0 0 0
757 1 -9.75206983335745 -0.6155572681120169 3.6382935784614503 0 0 0
781 1 -7.273050866077115 -0.6185722299889758 3.739485034638136 0 0 0
352 1 -5.5366252281624995 -3.007500851188304 3.0837517670749044 0 0 0
365 1 -6.318897430115379 -2.2417935921212706 5.375139855207852 0 0 0
773 1 -4.750849950547892 -0.5917922908572795 3.628974634079391 0 0 0
274 1 -3.884803658136761 -2.28457766735211 5.305199132848173 0 0 0
286 1 -3.107087893206087 -3.019229724301802 3.1466520378311422 0 0 0
444 1 -0.5168815358454513 -2.9188528243304948 3.17774891194615 0 0 0
285 1 -2.202926971443338 -0.6226152214602578 3.655873716677611 0 0 0
255 1 -1.4502021389645812 -2.276104454079901 5.423843076284278 0 0 0
317 1 -11.758287965716182 -12.384078353530755 7.07068663763533 0 0 0
399 1 -9.338519824383251 -12.385924620538042 7.123087906832634 0 0 0
422 1 -6.936677175524246 -12.29697601735233 7.194485717376995 0 0 0
459 1 -4.4437259042849035 -12.375411615171323 7.223555152916514 0 0 0
462 1 -1.8076938839883692 -12.416250543407747 7.251787232051136 0 0 0
327 1 -11.919627209135673 -8.413089301904439 6.10654121520896 0 0 0
318 1 -11.024867614989668 -10.131337870719971 7.711787765997833 0 0 0
369 1 -12.712321119960963 -7.716326171370728 8.244839152316075 0 0 0
360 1 -10.357420328766572 -7.712934736722404 8.205731763732157 0 0 0
320 1 -9.534311766783315 -8.317767085941203 5.956449749883106 0 0 0
347 1 -8.652048314281979 -9.984088115272924 7.6748242216942515 0 0 0
348 1 -7.774969080916221 -7.751301892006337 8.208654524502048 0 0 0
349 1 -6.976629452392178 -8.448224532821262 6.049107469702793 0 0 0
425 1 -4.565058589570416 -8.445758983275896 5.936115228221325 0 0 0
423 1 -6.09795906104991 -10.064013536909007 7.723605702951556 0 0 0
290 1 -5.324364268317726 -7.848213258507243 8.191633304571223 0 0 0
449 1 -3.5206947024068462 -10.173619295422604 7.79814424640238 0 0 0
447 1 -2.1277049531047822 -8.39346377016317 6.077951846099463 0 0 0
456 1 -1.0514959678086395 -10.061429402581402 7.725155502876419 0 0 0
1205 1 -0.4121532063276252 -7.836637010128003 8.256004109809272 0 0 0
448 1 -2.8398066726353424 -7.756628951576636 8.313457059152451 0 0 0
329 1 -11.299935020315658 -6.03328216384238 6.38519819482708 0 0 0
337 1 -13.039493751150067 -3.8361577418521353 6.933669928779597 0 0 0
373 1 -10.449166367358007 -3.9948535932170905 7.078823801010536 0 0 0
262 1 -8.556547236096895 -8.140263023788801 14.337398024283086 0 0 0
362 1 -8.697547673148296 -6.216677359476263 6.555473805376202 0 0 0
363 1 -7.915034337830728 -4.046560308608198 7.104627727288364 0 0 0
278 1 -6.9417475806575055 -5.599538413580428 8.772726653600948 0 0 0
350 1 -6.1501667740484365 -6.157094456710858 6.537413052459566 0 0 0
250 1 -5.580161632883128 -3.906782468086716 7.081166672359455 0 0 0
288 1 -3.728327375115448 -6.143132746296462 6.446402076651442 0 0 0
443 1 -1.243233866374366 -6.148306161558389 6.628175243657083 0 0 0
275 1 -2.9256221431262066 -3.8635311538972132 7.061561702240748 0 0 0
1212 1 -0.4959074122148728 -3.908532419488747 7.146127536358534 0 0 0
257 1 -1.999356312102023 -5.536149898394973 8.846772074334304 0 0 0
378 1 -12.124765349517741 -1.588868555917891 7.526021025941109 0 0 0
387 1 -10.098559273041051 -13.560745667965387 2.7569157999415346 0 0 0
374 1 -9.625012005097664 -1.6440725513735028 7.535681138881369 0 0 0
267 1 -7.106839575412653 -1.5376234786138703 7.602967227306898 0 0 0
880 1 -1.4357240027355829 -0.39890582099988237 11.990500730368485 0 0 0
245 1 -4.6699567869668215 -1.5828776280314418 7.599132780614056 0 0 0
249 1 -2.130744393745008 -1.6433946886953734 7.660177566449448 0 0 0
342 1 -11.718194804914614 -13.302706658858579 11.041372001957708 0 0 0
316 1 -12.661517731466096 -11.623056479591382 9.4375554389425 0 0 0
344 1 -11.053071964392297 -11.009488364709483 11.533755685483904 0 0 0
345 1 -10.184984638314031 -11.792645442980835 9.344529687006776 0 0 0
421 1 -7.766214483119301 -11.650275821094 9.390306197507886 0 0 0
419 1 -9.265567769815071 -13.229188839280386 11.091986454651739 0 0 0
453 1 -6.801466569629271 -13.25723477703255 11.184956583526215 0 0 0
451 1 -5.276393214030653 -11.690340145057624 9.329815225171089 0 0 0
460 1 -4.348806008698782 -13.329871361973447 11.15247852029258 0 0 0
452 1 -6.1121997408583235 -10.937945062526431 11.594096135808208 0 0 0
439 1 -3.6818960253460293 -11.045502904563495 11.648338304434578 0 0 0
458 1 -2.699973240432808 -11.747705725694512 9.47625816016134 0 0 0
434 1 -1.8473387002501873 -13.1993898528039 11.231372357882776 0 0 0
436 1 -0.28009136935484946 -11.725976244747953 9.525976403170272 0 0 0
435 1 -1.183880288301653 -11.047205476650834 11.707494700650933 0 0 0
358 1 -11.92362090346708 -9.33104393308259 9.900835689341097 0 0 0
359 1 -11.119759671104028 -7.049765026368247 10.248888285861856 0 0 0
30 1 -3.0066234960673413 -1.9503295746705689 13.67236957080516 0 0 -1
346 1 -9.4391841795373 -9.40423992229504 9.866476275632532 0 0 0
280 1 -8.670621148260723 -7.120043462812091 10.46320513059722 0 0 0
292 1 -6.877661626987189 -9.361205151361851 9.924113209601291 0 0 0
450 1 -4.397826932457265 -9.409048231197179 9.883455452141202 0 0 0
291 1 -6.249316035952479 -7.141733844637965 10.422214400471397 0 0 0
289 1 -3.683509569733305 -7.062921914118019 10.413113049129326 0 0 0
441 1 -1.9020360170016737 -9.530059529745358 9.998360256420234 0 0 0
442 1 -1.3531930296682866 -7.241436097230158 10.460427176437669 0 0 0
371 1 -12.176923340056621 -5.497810288850173 8.690126515188226 0 0 0
372 1 -12.978559993316116 -4.885885805816347 10.854684697819433 0 0 0
370 1 -10.425217991385917 -4.855217473467992 10.958014501394011 0 0 0
361 1 -9.555840726019419 -5.411872839430952 8.815411053736302 0 0 0
279 1 -7.904757810496783 -4.9586834299265465 10.999359682898156 0 0 0
276 1 -4.481158026420035 -5.523520055573117 8.683479572984044 0 0 0
252 1 -5.395863016358378 -4.796975015429458 11.040285941274202 0 0 0
239 1 -0.5904730135579328 -4.881584118894505 10.960449782565782 0 0 0
241 1 -3.0311425254961417 -4.867866841991944 11.001214069870834 0 0 0
264 1 -11.221537820799192 -3.2529508769470556 9.276583531719698 0 0 0
377 1 -13.090798567095876 -0.9686427049064346 9.800876642987536 0 0 0
830 1 -10.563550819299333 -0.9004898218375388 9.809021514337903 0 0 0
1063 1 -12.120323780371256 -2.7061105508844303 11.412019516248996 1 0 -1
269 1 -8.678306421062784 -3.1776688199264704 9.336515418387059 0 0 0
268 1 -8.012280134182909 -0.8446991297081219 9.781870446926956 0 0 0
271 1 -9.602126110977727 -2.567437835547473 11.471420908207648 0 0 0
253 1 -7.105730391930325 -2.4600791679639773 11.623046393586225 0 0 0
238 1 -4.584423914503022 -2.5612586156377315 11.54405974924681 0 0 0
258 1 -3.7664188392395808 -3.245930851446179 9.26291569311465 0 0 0
277 1 -6.319035741040408 -3.2786278819297365 9.351742997711476 0 0 0
251 1 -5.543214264496559 -0.9804583869580998 9.75726157825924 0 0 0
236 1 -2.1718013660466795 -2.5501557066883773 11.453692721335386 0 0 0
256 1 -1.3321091524105793 -3.1303519531249755 9.208697238433587 0 0 0
929 1 -2.965990844994945 -0.8760016539604987 9.782144630375 0 0 0
879 1 -0.5704382895091253 -0.9053610483452061 9.898015826199913 0 0 0
102 1 -12.669004184944804 -12.641052410852044 13.308130178335688 0 0 -1
21 1 -5.537309907895777 -1.8561208525308786 13.735222899877783 0 0 -1
294 1 -8.678970099802724 -10.958970633924054 11.65028920859578 0 0 0
842 1 -10.132451777530084 -12.682023564651848 13.352285987033344 0 1 0
296 1 -7.696830101007981 -12.614874068997908 13.321809494957773 0 0 0
263 1 -6.94000702746819 -10.319928310728802 13.735725225381877 0 0 0
437 1 -5.185511818421579 -12.53505614812348 13.338123488411359 0 0 0
433 1 -2.856288729698109 -12.76291677712831 13.404980427398005 0 0 0