LAMMPS data file via write_data, version 2 Aug 2023, timestep = 0, units = metal

1864 atoms
3 atom types

-14.007035995129 14.007035995129 xlo xhi
-13.787874992894144 13.787874992894144 ylo yhi
-14.223974417177091 14.223974417177091 zlo zhi

Masses

1 55.847
2 1.008
3 1.008

Atoms # atomic

109 1 -12.226630149936073 -12.932882286402634 -13.072300246317997 0 0 0
158 1 -13.449041106769808 -10.513318227368774 -11.846095083807946 0 0 0
120 1 -12.13253185093021 -10.381128183411661 -13.946724216866832 0 0 0
111 1 -11.141567461695901 -11.278334880301076 -11.548731134087436 0 0 0
112 1 -9.663090822873844 -13.273273452115859 -12.527856434948358 0 0 0
451 1 -9.732414055808425 -11.073499131021695 -13.554230885319887 0 0 1
287 1 -7.41804838378123 -11.869590789332026 -13.202634308549579 0 0 1
114 1 -5.048678854511708 -12.613485619794233 -12.784776341384452 0 0 0
102 1 -2.6372833275033454 -11.02822564370477 -13.654254273288636 0 0 0
105 1 -2.6790808993267063 -13.227474576937201 -12.572499310896697 0 0 0
964 1 -0.4112420341812868 -11.802636135925894 -13.152837997239335 0 0 0
1116 1 -13.259710497974552 -7.980828994828413 -12.929135899879032 1 0 0
121 1 -11.115220736361628 -8.841345829780387 -12.370147282967087 0 0 0
123 1 -8.675086239071634 -9.588216661911694 -12.010159357462687 0 0 0
130 1 -8.455066181422055 -7.117316309298152 -13.141121428579583 0 0 0
122 1 -6.415407477683007 -10.181104184785838 -11.698470703826121 0 0 0
124 1 -6.162543148165694 -7.925530922799225 -12.922604397299015 0 0 0
280 1 -3.3338934597890297 -2.129174385161315 -0.03807282431802861 0 0 0
103 1 -5.0353625069947245 -10.315515608960718 -13.879734655775994 0 0 0
115 1 -3.809244524751577 -8.695480174074829 -12.44262752233675 0 0 0
126 1 -1.634729155679409 -9.672742515142815 -12.014576893870803 0 0 0
97 1 -1.615812196053657 -7.268308912484557 -13.03424683489652 0 0 0
540 1 -8.052937877037202 -0.7138484800041613 -0.9229616790685444 0 0 0
1058 1 -12.145934216173055 -4.109581620952255 -12.453101844374707 1 0 0
455 1 -13.215600690253602 -5.706509851848137 -13.834033289139402 0 0 1
29 1 -10.87692074473824 -6.427179414078238 -13.531684487144641 0 0 0
131 1 -9.828509448859158 -4.847696939550316 -11.9400061705172 0 0 0
132 1 -7.450247116149884 -5.649318760100792 -11.676394521578636 0 0 0
312 1 -6.129117214865113 -5.65506271767269 -13.845929242383821 0 0 1
98 1 -3.7777961463622987 -6.439563212041814 -13.511306776652809 0 0 0
19 1 -5.0117120907179515 -4.115455493826245 -12.505601212331339 0 0 0
134 1 -2.788557753048133 -4.857682273541936 -12.104852015589191 0 0 0
136 1 -0.5297702919148666 -5.593608972159505 -11.793123855621673 0 0 0
39 1 -12.232457344196991 -1.8156571713243483 -13.527796788821792 0 0 0
40 1 -10.973590798118497 -0.280018812332294 -12.113939535567614 0 0 0
16 1 -9.788589999880935 -2.4881146937190888 -13.231387155720649 0 0 0
41 1 -8.59885489481032 -0.9882685571408736 -11.738332420648264 0 0 0
601 1 -6.449679145634743 -0.05604846754678938 -7.749127372970989 0 0 0
17 1 -7.521611027382802 -3.3235922406372573 -12.964283255339968 0 0 0
315 1 -7.457326881888083 -1.1306076673944574 -13.995435587821943 0 0 1
543 1 -3.907139465585967 -0.2808522565542422 -12.07746544895349 0 0 0
23 1 -5.04802962098271 -1.8254293524374585 -13.41238670673633 0 0 0
21 1 -2.735126964484092 -2.694510317731009 -13.131837944798251 0 0 0
957 1 -0.3262939417993014 -3.3414845818956156 -12.786895960312965 0 0 0
22 1 -1.615780741442613 -0.932602184116778 -11.753451052139418 0 0 0
28 1 -0.3761482492146566 -1.0518410369191944 -13.780416336551092 0 0 0
144 1 -13.63839976691614 -12.818891302190854 -11.044719232690195 0 0 0
145 1 -12.39260286759526 -11.341714292828334 -9.371026265678475 0 0 0
110 1 -11.41684785974355 -13.649983779390212 -10.56561776879523 0 0 0
194 1 -10.211906651623696 -11.943711251918236 -8.84844433062969 0 0 0
113 1 -8.815855672161224 -11.793758956056646 -11.016819624873698 0 0 0
146 1 -7.907099643425324 -12.511995017793229 -8.730602568130923 0 0 0
153 1 -6.421182388187004 -12.53942237085196 -10.752356341521207 0 0 0
116 1 -3.9214330084908635 -10.917634075205788 -11.550641924302354 0 0 0
107 1 -4.149253837196158 -13.192235649185418 -10.274846489011972 0 0 0
198 1 -5.229478243306007 -10.96947227687807 -9.250595235052891 0 0 0
154 1 -2.9992271269223654 -11.761498680805104 -8.80492273044728 0 0 0
108 1 -1.6724578913713124 -11.858435853603645 -11.033103082702414 0 0 0
159 1 -12.389577479069269 -8.93699532665272 -10.258180257277157 0 0 0
166 1 -11.173846271890655 -7.175695291064182 -8.898940175392259 0 0 0
179 1 -9.84436851922403 -7.361020018474878 -11.040113605775396 0 0 0
175 1 -10.00827256809041 -9.581475196599758 -9.825318184314995 0 0 0
160 1 -8.695273900499487 -7.958846713840838 -8.582928919119908 0 0 0
151 1 -7.658506495079395 -10.270926690227759 -9.651194608008655 0 0 0
106 1 -7.597523271900384 -7.90920261139247 -10.586175091999392 0 0 0
169 1 -5.18375688627682 -8.613814685938777 -10.299222116340017 0 0 0
170 1 -4.102724041572735 -7.040170106136724 -8.758170678793125 0 0 0
127 1 -2.8911855752991897 -7.1422637840433225 -10.97275061618431 0 0 0
117 1 -2.892218533697564 -9.363048398148251 -9.909990378860693 0 0 0
118 1 -0.6056519183391433 -10.25035646883402 -9.615343913838636 0 0 0
128 1 -0.5575615878670526 -7.981573637606027 -10.577726389139414 0 0 0
173 1 -12.178288125829866 -6.46472944868739 -11.257867337618567 0 0 0
1002 1 -13.38671124623224 -6.53084137229313 -9.268302961233701 1 0 0
174 1 -13.4558909911901 -4.132425539925924 -10.235215712795581 0 0 0
214 1 -10.998267137715736 -4.894451240052836 -9.903550456494088 0 0 0
180 1 -8.640774217916674 -5.488868974150993 -9.556096054072139 0 0 0
167 1 -6.378917926465105 -6.460841310793224 -9.137560852222506 0 0 0
133 1 -6.405196037007172 -4.000926731012406 -10.348928956489745 0 0 0
125 1 -5.318819626838154 -6.425912364951155 -11.32611904338177 0 0 0
181 1 -4.046162456738202 -4.755646995853626 -9.855473420698479 0 0 0
183 1 -1.8070682610340807 -5.501134033846057 -9.646715233364132 0 0 0
30 1 -13.350651890895406 -1.9158917723364421 -11.293089262832074 0 0 0
44 1 -12.224520172138064 -2.5439510144623494 -8.87332242506847 0 0 0
53 1 -12.319302856332705 -0.35000936564433616 -9.919825354759663 0 0 0
33 1 -8.62292029422833 -3.182906753897223 -10.624032652618718 0 0 0
31 1 -11.03164337087181 -2.566621106076683 -10.885374834831357 0 0 0
32 1 -9.917245628973362 -0.9470889051472682 -9.482484623675113 0 0 0
18 1 -6.306072662086734 -1.7123659236996627 -11.302438387800278 0 0 0
34 1 -7.459581777956465 -1.621225943845415 -9.119504050454484 0 0 0
20 1 -4.0326958763128715 -2.4902322467517077 -11.01334786247968 0 0 0
35 1 -5.275710196671087 -2.365048492682348 -8.824583932645087 0 0 0
42 1 -5.234056482028812 -0.15774818879354413 -9.955739414368423 0 0 0
38 1 -2.9536234143861595 -0.7971607527336992 -9.598369739356574 0 0 0
135 1 -1.7631641737250092 -3.254325143474569 -10.642682126883038 0 0 0
953 1 -0.5919593040734039 -1.7958236842014923 -9.172578202691334 0 0 0
192 1 -12.61479769458604 -13.565440547083846 -8.330116173025509 0 0 0
185 1 -13.658323345261127 -11.118297050088911 -7.191921616961072 0 0 0
1464 1 -13.754039263502591 -13.434362074249112 -6.166311456778457 1 1 0
176 1 -11.34048147248464 -11.940287186987224 -6.775270220246076 0 0 0
186 1 -8.929330153782274 -12.615138309489767 -6.421466797169958 0 0 0
196 1 -6.653700753538362 -10.954336691673706 -7.201350422649996 0 0 0
187 1 -6.650409307713663 -13.251124565479206 -6.053592562771522 0 0 0
140 1 -5.451916369892519 -13.19047934770241 -8.201171829665464 0 0 0
200 1 -4.365730596490419 -11.670445003618928 -6.73862213180211 0 0 0
142 1 -0.6018535531662277 -12.427215043102263 -8.37515050520398 0 0 0
143 1 -2.0069441441106513 -12.404821577903107 -6.347722998385556 0 0 0
204 1 -13.635257715175538 -8.846846417359906 -8.268823048810734 0 0 0
1041 1 -12.40369870570469 -7.188703746949156 -6.792002515481798 1 0 0
205 1 -11.320236147536232 -9.564657060929026 -7.934909684017032 0 0 0
193 1 -12.44559108582166 -9.501274144334769 -5.735590607899784 0 0 0
195 1 -8.97532481819561 -10.252781326507531 -7.428461164639371 0 0 0
89 1 -10.091645058623218 -7.936431041948201 -6.558889773666782 0 0 0
197 1 -7.641017994914751 -8.602192113681207 -6.120863166744725 0 0 0
208 1 -6.530290797673226 -8.680444889046687 -8.262819098509011 0 0 0
155 1 -4.151937468574614 -9.391944423081483 -7.842472566325972 0 0 0
209 1 -5.330616952501403 -7.032836422689735 -6.629509322918582 0 0 0
210 1 -3.0848571557048956 -7.861499108758895 -6.255950564874365 0 0 0
171 1 -1.6449374959260368 -7.8748991739788625 -8.388461220536826 0 0 0
156 1 -1.8642754936951782 -10.213204625176619 -7.388987214757426 0 0 0
157 1 -0.8075899660754757 -8.602918890821854 -5.930093759401137 0 0 0
213 1 -12.288304916208038 -4.838166531910552 -7.856307731714954 0 0 0
216 1 -9.99986424915149 -5.604695140575107 -7.4633119030019985 0 0 0
217 1 -9.005637827854702 -4.075096354519232 -6.060561574699856 0 0 0
48 1 -7.6038648961955575 -3.955312774970917 -8.143330797769053 0 0 0
206 1 -7.655210510232004 -6.319749476159007 -7.043221714951777 0 0 0
168 1 -5.3024262136937175 -4.759385977003724 -7.661019281969945 0 0 0
220 1 -2.9328531327655654 -5.661957561763868 -7.278524474333783 0 0 0
184 1 -0.6021541393820495 -3.9897808073093177 -8.18741283786602 0 0 0
172 1 -0.6451852831406253 -6.414460444333814 -7.033013657402396 0 0 0
984 1 -1.852907470768466 -3.877302149867278 -5.834609401900014 0 0 0
55 1 -13.6451684769581 -2.61375182191645 -6.635171757475165 0 0 0
63 1 -13.665262207856712 -0.3216297327978186 -7.845623704815974 0 0 0
215 1 -11.197564000143295 -3.2109129334351874 -6.355623404605715 0 0 0
45 1 -11.299497848310585 -0.8973677246092677 -7.3932545549607305 0 0 0
178 1 -10.005301526552405 -3.2670383944298838 -8.55755901733092 0 0 0
46 1 -8.905554747961546 -1.7747818210251722 -7.106180794864176 0 0 0
207 1 -6.565827992864979 -2.4531796739720804 -6.7009977725271765 0 0 0
223 1 -13.86712576047707 -11.696664050414595 -2.4470126619564763 0 0 0
218 1 -4.195177333188823 -3.269241973253573 -6.235012773047655 0 0 0
36 1 -4.2146820655604 -0.8743484964246946 -7.3569622415624565 0 0 0
37 1 -3.0035397126652867 -3.3222896546814518 -8.504814082664009 0 0 0
182 1 -1.930244340074383 -1.6875738283972712 -7.142488191649996 0 0 0
1023 1 -12.572878470246414 -11.747829960964504 -4.567928656659953 1 0 0
224 1 -10.337216336063891 -12.530770466313072 -4.2530262043735 0 0 0
226 1 -7.987719426897726 -13.172816073643071 -3.9478259125953485 0 0 0
189 1 -8.060952045276782 -10.886437320653144 -5.021803260985031 0 0 0
191 1 -5.639637087282601 -11.559515178426892 -4.588451156039477 0 0 0
231 1 -3.3405605784315338 -12.331685215524395 -4.094218331424393 0 0 0
464 1 -0.9903340483448915 -12.9842859203563 -3.82666542376783 0 1 0
990 1 -0.8598216928266176 -10.862281457006699 -4.861338928249628 0 0 0
81 1 -13.77880378518765 -9.472215272016477 -3.5963233306669213 0 0 0
8 1 -13.75573735090381 -7.330217158677419 -4.749218963456148 0 0 0
90 1 -11.328831119905079 -7.834382469630346 -4.194689099683787 0 0 0
165 1 -11.515728679260649 -10.080722990341101 -3.096580046217742 0 0 0
164 1 -10.278648891493194 -10.241062533161054 -5.2956015458743675 0 0 0
162 1 -9.09065453059559 -8.720602165325523 -3.8942804693353903 0 0 0
150 1 -6.762320301197212 -9.40657750858868 -3.4820378802426557 0 0 0
87 1 -6.626093720211564 -7.010229644177679 -4.419632402185611 0 0 0
199 1 -5.407526789774021 -9.389062626245115 -5.700297816379694 0 0 0
85 1 -4.3383484989214995 -7.7252226454463795 -4.139732130791284 0 0 0
148 1 -4.445537916324813 -10.01013625874764 -3.061746104573798 0 0 0
201 1 -3.2018831790574094 -10.06481240489849 -5.098318093610496 0 0 0
74 1 -2.0052396743034286 -8.496351647764257 -3.762746131184155 0 0 0
101 1 -13.572099649099364 -4.879905908938666 -5.563982185484692 0 0 0
25 1 -12.506081901166242 -5.572804809042577 -3.185151961129277 0 0 0
203 1 -11.269907770762199 -5.611040892159229 -5.360875123911832 0 0 0
88 1 -8.86024099407366 -6.316491494168375 -4.900909667318004 0 0 0
26 1 -10.132040794711013 -4.024957898825832 -3.7270432076891638 0 0 0
15 1 -7.794122897906167 -4.671318183764425 -3.4067658629403432 0 0 0
14 1 -6.711945485417585 -4.692637988856186 -5.549749430326791 0 0 0
86 1 -5.490054356981382 -5.372294636147629 -3.145616297036957 0 0 0
12 1 -4.22304907714533 -5.493528171171658 -5.219867310088096 0 0 0
11 1 -3.171371437145318 -3.814462873802185 -3.9065430235102685 0 0 0
75 1 -3.1631869900872616 -6.0888372302321 -2.7061906945993712 0 0 0
211 1 -1.8888012543187944 -6.273423579264723 -4.714710145896852 0 0 0
10 1 -0.7350154197258405 -4.572934631636311 -3.4347717272668277 0 0 0
6 1 -12.392286774755098 -3.2706929955692257 -4.094267347969 0 0 0
1115 1 -13.832377568742896 -0.8819917309226675 -3.033747025361725 1 0 0
538 1 -12.48099419364881 -0.8820150832450047 -5.240387193075081 0 0 0
246 1 -2.8031738176692116 -0.23098029377177376 -14.210798258444395 0 0 1
56 1 -10.18179414156648 -1.7252452275968793 -4.9847989775256565 0 0 0
47 1 -7.72151887584597 -0.19263069662971155 -5.552258281013822 0 0 0
59 1 -7.812770015197889 -2.356493759455619 -4.54167472771786 0 0 0
60 1 -6.576165506959359 -0.8598775471725535 -3.0506740948134023 0 0 0
13 1 -5.4799795226893835 -2.982342071034191 -4.021288350864436 0 0 0
219 1 -5.3762237462797255 -0.9178755210184715 -5.223878678647351 0 0 0
221 1 -3.0174746358650335 -1.6005193939310747 -4.907630198407734 0 0 0
52 1 -0.7031638713918689 -0.05229860923454588 -5.635072389627471 0 0 0
222 1 -0.6366923793925849 -2.246517351251855 -4.584896204964309 0 0 0
62 1 -1.9834060921953949 -0.08628901395925226 -3.5568539752559456 0 0 0
3 1 -4.24883701047629 -1.633523912207945 -2.733858865450916 0 0 0
177 1 -11.36060374608867 -12.41073683789542 -2.076067436861342 0 0 0
163 1 -9.115649303121511 -10.942363399621213 -2.7661640934536162 0 0 0
82 1 -10.252889144380317 -10.808427060733331 -0.6493888198631961 0 0 0
92 1 -9.143490450414873 -12.963220601858023 -1.6173686742135764 0 0 0
270 1 -8.027338258921453 -11.449801424676046 -0.1315110370798287 0 0 0
228 1 -6.889121171478044 -11.607190947762225 -2.5131043669243045 0 0 0
1864 1 -1.011513816948522 -0.7625419364918891 -0.9061670255513654 0 0 0
230 1 -4.413384097333399 -12.347561026409867 -1.9387107499889424 0 0 0
417 1 -3.2078717638536087 -10.683159596650036 -0.5681461691410998 0 0 0
1154 1 -2.1020434851230085 -10.765007588952994 -2.731743996234929 0 0 0
929 1 -2.0851518537787843 -13.125066623966767 -1.6861191755074412 0 1 0
1196 1 -0.9293351226860693 -11.485579976676599 -0.22974127751800744 0 0 0
91 1 -12.546268049420975 -10.004366889826816 -1.037433440240191 0 0 0
72 1 -12.601511555309438 -7.817036819868016 -2.140162499978297 0 0 0
79 1 -10.222391134948882 -8.484475892215524 -1.6717597303784224 0 0 0
68 1 -9.20592204181505 -6.92246784986457 -0.30379899393183685 0 0 0
275 1 -7.932182538424351 -9.248752066603902 -1.3515951840953289 0 0 0
77 1 -7.883968511800058 -6.840207372472869 -2.4639487699350013 0 0 0
161 1 -5.611508719820565 -9.930644667914759 -0.9175574684223378 0 0 0
76 1 -5.565353513748903 -7.725728883201379 -1.985524232525691 0 0 0
149 1 -3.2334610521942135 -8.36957457598685 -1.8279093727537443 0 0 0
147 1 -0.8655754438548051 -9.038427897242737 -1.4018814085279079 0 0 0
73 1 -0.9062537679119167 -6.888291859475787 -2.2630615623099377 0 0 0
1098 1 -13.707014058835108 -5.393555719139332 -0.9935528430289242 1 0 0
24 1 -11.357622106137441 -3.777263267033115 -1.6766482954165731 0 0 0
78 1 -11.475260966965447 -6.164546502558378 -0.5694608917298609 0 0 0
70 1 -10.188047389853022 -6.30673023101943 -2.764215965618222 0 0 0
69 1 -9.076056102724351 -4.573082825785249 -1.206220372433684 0 0 0
276 1 -6.717534137225864 -5.391590984290682 -0.8905804616649107 0 0 0
66 1 -4.397378287928859 -3.7222630709440025 -1.6847789348381852 0 0 0
279 1 -4.404284934314655 -6.07060581243945 -0.5982270404165568 0 0 0
431 1 -2.0991602125462325 -6.751827516673888 -0.1561733112186907 0 0 0
65 1 -2.1373663973152155 -4.505969327991711 -1.3942298397693715 0 0 0
57 1 -11.464594979156793 -1.5928182837187972 -2.744382605730209 0 0 0
1106 1 -13.792400701415392 -3.107279520623919 -1.9656870565589877 1 0 0
1152 1 -12.681082527067183 -1.5165814304871397 -0.5966034705645793 1 0 0
1 1 -10.244464675746817 -2.2145877654296022 -0.20860283883864206 0 0 0
4 1 -9.0088770446919 -2.385014305941299 -2.4012742424513966 0 0 0
2 1 -1.935527349977649 -2.2962139996743947 -2.4430764830111187 0 0 0
67 1 -6.799660529947691 -3.0917441039577263 -1.8670474796636913 0 0 0
450 1 -5.565494316089779 -1.3723028924943126 -0.611968322623234 0 0 0
58 1 -9.151537245672849 -0.1463895587581323 -3.4089359602771694 0 0 0
323 1 -7.25119224413396 -9.543246453528125 -14.130966494759551 0 0 1
342 1 -6.812519211901117 -13.764955287448444 -1.3852873721087988 0 0 0
64 1 -13.788708343410605 -7.747061228159406 -0.024621517210135835 0 0 0
5 1 -10.218614355211521 -3.302015353590093e-05 -1.285365763657257 0 0 0
370 1 -5.773360206236056 -12.2095796146622 -0.01009609597100436 0 0 0
249 1 -11.497014331113869 -10.811453062535726 1.4528216415126014 0 0 0
769 1 -11.532489735699846 -13.048438259947789 2.6332374253934727 0 1 0
1271 1 -13.959803240478742 -5.992156331461087 3.6344851463324677 1 0 0
346 1 -0.1775178753995803 -13.287680510439198 11.780445454548376 0 0 0
83 1 -10.442769663118767 -13.028260885215008 0.5213243980099929 0 0 0
250 1 -9.200049843974142 -11.512321630545218 1.9640064995546016 0 0 0
369 1 -6.900887110877228 -12.151733228293862 2.3334572272008725 0 0 0
263 1 -6.09968418242304 -1.0597108758563802 12.304022169757252 0 0 0
444 1 -11.526251414161418 -0.037375325971646944 0.8972223905680927 0 0 0
364 1 -4.54327949117258 -12.948833768821475 2.715171743043788 0 0 0
416 1 -4.583982992371393 -10.569850809421512 1.5763502309639374 0 0 0
418 1 -3.18952056651791 -12.934473223439097 0.4724837893579146 0 0 0
409 1 -2.1799111124109025 -11.38864083489431 2.00879244185837 0 0 0
271 1 -12.806443948728555 -8.461562353541943 2.6224435580114243 0 0 0
84 1 -11.50149984610977 -8.410416053244191 0.45948955602724695 0 0 0
1082 1 -13.829812909132041 -9.958796961794672 1.026144140783357 1 0 0
244 1 -1.376820874707553 -2.516207015893764 13.12472016807853 0 0 0
274 1 -9.104519616339093 -9.175678916340502 0.7862642037940635 0 0 0
366 1 -8.002155268735862 -7.59587453607358 2.304445714831653 0 0 0
368 1 -6.855652862001305 -9.85128218763327 1.246577347421372 0 0 0
414 1 -5.747926851778217 -8.3648385281995 2.655646322340962 0 0 0
411 1 -0.9227826432295299 -13.722603453586888 0.8878646329477267 0 0 0
415 1 -4.457408716888084 -8.25530090991127 0.5422359833653587 0 0 0
432 1 -2.1287539472770707 -9.09822687428818 0.833293201015957 0 0 0
426 1 -1.038927859009787 -7.483624465630319 2.3190986378748324 0 0 0
71 1 -12.685629537235792 -3.6841763905748195 0.4925547252712885 0 0 0
80 1 -12.722250211395098 -5.996127359228 1.547175651061643 0 0 0
95 1 -1.5532344887999106 -4.904118941578956 14.219891485278835 0 0 -1
267 1 -10.320878928058361 -6.830081464705844 1.841922124666043 0 0 0
443 1 -10.376281179884188 -4.424505900834346 0.8523516445183965 0 0 0
273 1 -8.056202294393636 -5.316895853255701 1.2372683928527088 0 0 0
413 1 -5.675221638605343 -6.076167680032888 1.5364710487427118 0 0 0
252 1 -6.827697132145897 -3.6040555348647043 2.7034719122418824 0 0 0
278 1 -5.665564199531735 -3.6886404026984145 0.5492461971194853 0 0 0
429 1 -3.2916432741965664 -4.3584447057949465 0.848040919147051 0 0 0
430 1 -3.3613926015569096 -6.683098436317621 2.0387209631391894 0 0 0
436 1 -0.8629467889830273 -5.214487401589507 1.1964449600597575 0 0 0
445 1 -11.431045111081255 -2.2453155532443407 1.9492064566505984 0 0 0
1317 1 -13.993203103282358 -10.578583412093248 5.864429650316184 1 0 0
448 1 -9.09880931534504 -0.5739334315863243 1.3549507055214267 0 0 0
446 1 -9.143589967526976 -2.851241413403587 2.3609592407789766 0 0 0
449 1 -6.876155384101205 -1.331364048597484 1.7465031010777636 0 0 0
447 1 -7.9988066515121075 -2.9755281454902214 0.24196838092649742 0 0 0
235 1 -4.428542312829853 -2.155624717887587 2.0711667881441063 0 0 0
918 1 -2.098623249128659 -0.6135985376249806 1.298004540769611 0 0 0
434 1 -2.106542305220872 -2.9125844121058737 2.4456972469791314 0 0 0
435 1 -1.0799954384610935 -2.9291514344523684 0.32021935809788893 0 0 0
248 1 -12.861823757674513 -12.814759371842607 4.816541652629395 0 0 0
247 1 -12.74501456037664 -10.589969256749049 3.629917331485496 0 0 0
1179 1 -0.0409294332662018 -6.591797741211119 8.392513151566797 0 0 0
320 1 -10.546176791928902 -11.391329480684131 4.049387398176497 0 0 0
761 1 -10.519060346712813 -13.717554436720794 5.264819138354733 0 1 0
285 1 -8.134648022714515 -12.210036457049842 4.483436362852336 0 0 0
336 1 -5.671452768977792 -12.87615985254347 4.780597736759296 0 0 0
362 1 -5.650302087439524 -10.676482295507707 3.725003844956957 0 0 0
925 1 -3.5322774775508776 -13.643064934251361 5.24810466715901 0 1 0
408 1 -3.2499764302855088 -11.347167007518372 4.176107148400268 0 0 0
410 1 -1.0072597762165092 -12.163232290686837 4.451564787926911 0 0 0
924 1 -2.2404851049732173 -13.569383802935294 3.072466757257862 0 1 0
318 1 -11.706893704806891 -8.977234295980994 5.029529540935469 0 0 0
310 1 -9.856993908203366 -0.32220117808680726 14.136713855370205 0 0 0
269 1 -10.427672699344885 -9.11637992443347 2.875682195835294 0 0 0
339 1 -9.269997553897273 -9.832269415794547 5.533182194372776 0 0 0
338 1 -9.188366418899918 -7.417223448534491 4.414364843010821 0 0 0
340 1 -8.140866571889635 -9.830794222355667 3.441812814896325 0 0 0
367 1 -6.980985532304387 -8.30584446959972 4.761763711976874 0 0 0
406 1 -4.625600525154301 -9.018554522717203 5.1377723583199195 0 0 0
407 1 -3.373036968815594 -9.113865697641913 2.9161155173107485 0 0 0
427 1 -1.1441183665637222 -9.78254474692724 3.3927949716788692 0 0 0
425 1 -2.161089173877224 -7.6977760879372825 4.406522376114209 0 0 0
400 1 -2.3200700267318606 -9.811974056356068 5.4814571783223 0 0 0
309 1 -8.428603307908007 -0.27320994983179325 12.027501009996302 0 0 0
439 1 -11.492953897244501 -4.463823406448077 3.115118004360321 0 0 0
251 1 -11.633255181658669 -6.761174793287242 4.008939647840231 0 0 0
438 1 -12.780036695063265 -4.451246015744836 5.2230138327557665 0 0 0
379 1 -10.568013027608627 -5.305118151251085 5.588766488302069 0 0 0
272 1 -9.255734757028542 -5.1168359919776805 3.3608124532500607 0 0 0
295 1 -8.153716516429819 -3.7404984141015696 5.017330315725415 0 0 0
412 1 -6.910902299099627 -5.961842215107033 3.7961602428136967 0 0 0
256 1 -5.785095325128616 -4.407933336903554 5.290472090143636 0 0 0
405 1 -4.617831607605513 -6.752256676006197 4.098666558921485 0 0 0
428 1 -4.504100090397651 -4.366833673105768 3.0342256349976022 0 0 0
423 1 -3.4097177800405127 -5.26864919170886 5.468821137723337 0 0 0
424 1 -2.1344110072066282 -5.213562483790604 3.371254304628012 0 0 0
433 1 -0.9974091103990919 -3.70673989744985 4.923431411170965 0 0 0
437 1 -12.864491649299392 -2.1492457496672195 4.137213542155427 0 0 0
440 1 -11.70463278073545 -0.5597912238118745 5.546479791533967 0 0 0
442 1 -10.471929140095927 -2.904669390077112 4.5376369775065175 0 0 0
441 1 -10.505859510166832 -0.4897784907730198 3.440712754288162 0 0 0
254 1 -8.022046442440558 -1.3478442517539655 3.8299756825687385 0 0 0
236 1 -5.719377874260637 -2.0358830119116043 4.242285735846847 0 0 0
869 1 -4.5935342630526375 -0.47383738708354173 5.7216840585418165 0 0 0
237 1 -3.463911674369376 -2.856028434805978 4.52797393862455 0 0 0
917 1 -3.4449236721977794 -0.5695570485869723 3.535680855063573 0 0 0
232 1 -1.0667656751638805 -1.3128691456201143 3.903817605662246 0 0 0
319 1 -11.562442998543247 -11.292917917798155 6.240010920772159 0 0 0
284 1 -13.107992914924116 -11.192654803643089 8.385246763168164 0 0 0
724 1 -11.761162354313706 -13.504443686040112 7.426469236870718 0 1 0
1252 1 -13.8933266556117 -3.6624980827231592 2.6972956620734845 1 0 0
316 1 -9.35414592781264 -12.12958882239636 6.611428814155078 0 0 0
333 1 -8.32165566044902 -10.406946307357382 7.9680901334736784 0 0 0
334 1 -6.983252034141243 -10.500329400654948 5.7450233843055205 0 0 0
335 1 -6.893079525541043 -12.95294319768449 6.913485806144243 0 0 0
330 1 -5.898819933648694 -11.179733680799197 8.34320476367145 0 0 0
789 1 -4.677575546441123 -13.587824280763346 7.443078828988062 0 1 0
363 1 -4.676944199655225 -11.381334485409688 6.193129947148497 0 0 0
245 1 -1.357976395895454 -0.29216568885777683 12.209120113235533 0 0 0
358 1 -2.4753466711534813 -12.004226338230733 6.5602337800070085 0 0 0
317 1 -12.94237366172721 -8.8978505837737 7.352621203637829 0 0 0
294 1 -10.656920936589179 -9.735465081169606 7.619493327358283 0 0 0
337 1 -10.595791494159219 -7.441164945605999 6.667897949585596 0 0 0
332 1 -8.121125290783382 -8.119133034981463 6.862238364860689 0 0 0
361 1 -5.8475207253906945 -8.977398242285691 7.283497157484971 0 0 0
356 1 -3.615395597113748 -9.626538511207219 7.621382740598124 0 0 0
396 1 -3.4274311236642454 -7.39964359479326 6.59372984988388 0 0 0
401 1 -1.1938086527955072 -10.431903945680698 8.04137016915635 0 0 0
422 1 -1.1823692982711922 -8.180475768418539 6.883825000189907 0 0 0
462 1 -12.834443349123141 -6.566168391486692 6.243371809256098 0 0 0
380 1 -11.655781287790635 -5.028092046808974 7.679333951949383 0 0 0
385 1 -9.496932232525893 -5.935250959721411 8.076593169612673 0 0 0
296 1 -9.401638800583978 -3.6312481195780695 7.032260346847869 0 0 0
365 1 -8.073902831645892 -5.829725289482334 6.025450880588606 0 0 0
299 1 -6.918219749298402 -4.354800840649908 7.3777528616068455 0 0 0
359 1 -7.038994923149708 -6.731705720945963 8.37988138875379 0 0 0
360 1 -5.820191601947624 -6.659872940560726 6.2106900330888575 0 0 0
404 1 -4.555403299372932 -5.12095544000716 7.6013414799754475 0 0 0
421 1 -1.0237549283397431 -5.974688157844554 5.816803648901269 0 0 0
420 1 -2.382824329076124 -5.895727980755942 8.101044619569938 0 0 0
1863 1 -13.824755289528696 -12.151424018539583 2.1944291859334495 1 1 0
277 1 -6.876953151767508 -7.641213284202867 0.07799283745579011 0 0 0
381 1 -11.632932871820017 -2.663208363005614 6.625833040200083 0 0 0
383 1 -12.925227424426778 -0.6052294898955299 7.690360224735995 0 0 0
298 1 -10.588776947652802 -1.1877831917945372 8.122885123369025 0 0 0
297 1 -9.324847827190808 -1.3435876027783689 5.924264036316265 0 0 0
253 1 -6.965282465055216 -2.0657656408694827 6.30009999951576 0 0 0
258 1 -5.961675464321328 -0.3592931660576202 7.7238068839441585 0 0 0
238 1 -4.635462878185111 -2.7510359655376053 6.491407152928 0 0 0
241 1 -3.674504248941437 -1.1355060178760947 8.134361937012367 0 0 0
239 1 -2.2127033952981794 -3.4393373449318645 6.9391604499186155 0 0 0
233 1 -2.353176686847437 -1.327409694401343 5.957120434785255 0 0 0
722 1 -12.958853730365735 -13.374133625650963 9.4387484839287 0 1 0
283 1 -11.886202962418931 -11.854461667985284 10.906778456824417 0 0 0
314 1 -10.673924251273577 -11.865531818229337 8.72188847369099 0 0 0
291 1 -9.468523731875681 -12.600093719080181 11.253214397905213 0 0 0
290 1 -9.597866007063647 -10.401795893445561 10.210563604319171 0 0 0
292 1 -8.344824239688155 -12.565991122572786 9.104807704421683 0 0 0
329 1 -7.2120916988038966 -11.108340005995455 10.563593650277566 0 0 0
788 1 -5.9504467223746325 -13.390125335395936 9.459102357283951 0 1 0
326 1 -4.816076963222525 -11.833203850321741 10.834883378540196 0 0 0
357 1 -3.5978136742123397 -11.955713599538075 8.737977275639595 0 0 0
1250 1 -13.795107789709531 -1.5383575741154285 1.663615247969739 1 0 0
352 1 -1.1771274933322164 -12.781020317076413 9.089899033278323 0 0 0
344 1 -2.482313499076284 -12.66656105823768 11.223662256030243 0 0 0
461 1 -11.901526409160406 -7.4113436503869465 8.80541815810995 0 0 0
293 1 -11.92222262017686 -9.739821330556895 9.80744130769307 0 0 0
460 1 -13.027875506723943 -7.284119313884536 10.932558780179887 0 0 0
458 1 -10.810216472850858 -8.091688580129006 11.209898991874608 0 0 0
331 1 -9.481873281558853 -8.123711975781374 9.150091084551464 0 0 0
328 1 -7.238147208786005 -8.92784160691751 9.427563066501795 0 0 0
353 1 -6.061461080521344 -7.309577704322196 10.998914532553835 0 0 0
354 1 -4.770520101815986 -7.366930917013059 8.776776074208337 0 0 0
355 1 -4.769782547491774 -9.597904927504402 9.849522927380002 0 0 0
348 1 -3.7252501258156645 -7.949852068576439 11.412479358434977 0 0 0
377 1 -0.13987988078861946 -8.823579658820199 9.63207607938717 0 0 0
350 1 -2.4145606828612554 -10.392296581273511 10.238582407097665 0 0 0
398 1 -2.446633136853718 -8.079026341650149 9.161935801915734 0 0 0
459 1 -12.944706512912436 -5.08323905643906 9.93885760265834 0 0 0
386 1 -10.644995883595907 -5.923451874221351 10.240139377142492 0 0 0
387 1 -10.565966113696147 -3.6639130170887704 9.349303281843072 0 0 0
391 1 -8.342819815904852 -6.570772987160506 10.46232874845966 0 0 0
300 1 -8.172729989959155 -4.354460309997547 9.383924533245887 0 0 0
305 1 -5.890096876226501 -5.032733438601882 9.853508422521527 0 0 0
384 1 -3.6379909877468215 -5.796034991999116 10.158794623072433 0 0 0
375 1 -1.2603707236446269 -6.509015983349964 10.558676270852166 0 0 0
243 1 -1.27939489454314 -4.207142234021841 9.459839130668263 0 0 0
382 1 -12.962956031132869 -2.7596134233101317 8.890114218763285 0 0 0
389 1 -11.818187474610596 -1.3180548295399301 10.34324494653964 0 0 0
302 1 -9.45033221344996 -1.964286094610074 10.645031004980682 0 0 0
301 1 -8.241407388962983 -2.064805306315497 8.561033964801942 0 0 0
307 1 -7.164896055674795 -2.717524952977703 10.988093060910535 0 0 0
259 1 -7.106010233351083 -0.40104432854870176 10.00941915738652 0 0 0
257 1 -5.798042244717081 -2.732810182124334 8.821805248337855 0 0 0
260 1 -3.570604016988172 -3.499487637844691 9.218829941893995 0 0 0
262 1 -4.788300599898301 -1.134327790847177 10.216494468058714 0 0 0
261 1 -4.888847499649032 -3.229220725041545 11.347056802055507 0 0 0
234 1 -1.2666877276882431 -1.9475435469560942 8.500659419626713 0 0 0
240 1 -2.4829634207992477 -1.832133370866666 10.662877138389929 0 0 0
93 1 -12.80992190018973 -12.205081925534753 0.11796047203685767 0 0 0