LAMMPS data file via write_data, version 29 Sep 2021, timestep = 0

1865 atoms
3 atom types

-13.882145934545116 13.882145934545116 xlo xhi
-13.90239137758516 13.90239137758516 ylo yhi
-14.139867581044323 14.139867581044323 zlo zhi

Masses

1 55.847
2 1.008
3 1.008

Atoms # atomic

182 1 -12.593097042171422 -13.107092682942811 -11.641162647871917 0 0 0
146 1 -13.292251167310571 -10.749679617038876 -12.151387464764946 0 0 0
148 1 -10.723566461066047 -11.849206252725244 -12.565698384648345 0 0 0
358 1 -8.134110004153136 -13.187606466439226 -12.907694649603668 0 0 1
362 1 -8.653763192744755 -10.756854381482915 -13.542573733543005 0 0 1
52 1 -6.8924028186158885 -10.90893445720468 -11.946709875678478 0 0 0
53 1 -4.276983949561018 -12.221034509644701 -12.381410912465109 0 0 0
700 1 -6.251770419264289 -13.207462125386469 -11.372690902399022 0 1 0
337 1 -6.147811111538362 -12.172888401679828 -14.03002370464661 0 0 1
51 1 -0.41733516234464396 -11.26678683296436 -11.741868491900357 0 0 0
344 1 -2.199880007227849 -11.150634636684382 -13.342421966430356 0 0 1
54 1 -1.5144603925256135 -13.475163356939921 -12.63352691800369 0 0 0
1104 1 -13.796933689203737 -8.466414234815385 -12.76493851764886 1 0 0
179 1 -11.25196186861701 -9.581383011252658 -13.079830184333513 0 0 0
360 1 -11.723069123755963 -7.412015285114407 -13.671041694679051 0 0 1
176 1 -7.414555820150191 -8.379949155830595 -12.524836868402453 0 0 0
174 1 -9.944934090255364 -7.386289948405994 -12.030469662421542 0 0 0
180 1 -9.309428542254498 -9.635087108157046 -11.598667172492707 0 0 0
48 1 -4.839584629950524 -9.96830477523618 -12.813327314829253 0 0 0
63 1 -5.269993996570973 -7.628316728251368 -13.387764785279302 0 0 0
44 1 -3.5847952193263612 -7.665138499800194 -11.652753279920109 0 0 0
46 1 -0.8528972606541547 -8.804286643381953 -12.26514630535491 0 0 0
50 1 -2.750663249378622 -8.75276236074124 -13.77206849330684 0 0 0
172 1 -12.666502359739766 -6.132661027433338 -11.672900725447164 0 0 0
194 1 -13.264805517827474 -3.7511926253664516 -12.119692477909508 0 0 0
166 1 -10.512959427358798 -4.9758483697622164 -12.614432288784787 0 0 0
340 1 -7.990589889743264 -6.094098305226129 -12.958273275718419 0 0 1
346 1 -8.474478326396437 -3.901539775014367 -13.623802604075777 0 0 1
193 1 -6.934978667709991 -3.94734442207643 -11.835197882731128 0 0 0
61 1 -4.11678469205045 -5.3194930621277 -12.33870965231672 0 0 0
170 1 -6.152862261048084 -6.293255399867228 -11.340537467088662 0 0 0
321 1 -5.890727224995658 -5.165876816107122 -13.969239238236623 0 0 1
62 1 -1.5106340762767285 -6.545875309385032 -12.76393533024261 0 0 0
292 1 -2.1787665733536876 -4.233221105569722 -13.244099889262849 0 0 1
60 1 -0.3348376317834738 -4.288666480854912 -11.670898490866001 0 0 0
423 1 -13.828380940769764 -1.3892545467881732 -12.738262044904822 0 0 1
189 1 -11.752214509782544 -0.3466302847370937 -13.72616061193745 0 0 0
191 1 -11.280042204638061 -2.6498321933269597 -13.174732280630609 0 0 0
432 1 -9.133329333245497 -1.4882329125125828 -14.067296200121467 0 0 1
186 1 -7.401239465955702 -1.699256577888308 -12.337441856576906 0 0 0
184 1 -10.050851091431355 -0.5027616428231045 -11.983363410210053 0 0 0
192 1 -9.453671084299707 -2.7794402364675292 -11.450737967317753 0 0 0
187 1 -4.885545278195236 -2.937032157448911 -12.864821111844972 0 0 0
197 1 -5.35720379811189 -0.6328491289479015 -13.206591972980133 0 0 0
183 1 -3.571000811852045 -0.7244442368234463 -11.679414942490848 0 0 0
56 1 -0.963141871285325 -2.0447629949969564 -12.258679753305202 0 0 0
64 1 -2.785890984802826 -1.9287215062193308 -13.909185432129016 0 0 0
119 1 -13.462513358057706 -11.827791542292369 -9.525723418747406 0 0 0
153 1 -10.889224164934546 -12.996385878731012 -9.860137233331955 0 0 0
147 1 -11.493541865697646 -10.723288367769056 -10.612776044371163 0 0 0
150 1 -8.900639444133711 -12.044100743661174 -10.87757683036754 0 0 0
149 1 -9.709646686572949 -10.787850966128742 -8.899145759952289 0 0 0
35 1 -7.154227828162213 -12.099636196986896 -9.28449617564938 0 0 0
37 1 -4.466515987876461 -13.471673499977111 -9.755626822224473 0 0 0
31 1 -5.054334630728839 -11.108415577811622 -10.246446444009683 0 0 0
33 1 -2.5056671864232243 -12.40610352312238 -10.68127706314444 0 0 0
34 1 -0.6477907101625764 -12.352039012477722 -9.039959929247516 0 0 0
32 1 -3.2598275882449226 -11.154467381694607 -8.659062334656024 0 0 0
178 1 -11.931425393761725 -8.318870854460954 -11.116254952075812 0 0 0
141 1 -12.713633414721718 -7.098661620711849 -8.999733471985225 0 0 0
110 1 -12.185710573670818 -9.489037153165867 -8.517415976483152 0 0 0
143 1 -10.185964812972816 -8.545001350544606 -9.492875530773603 0 0 0
36 1 -7.526059694864057 -9.610627252916306 -9.92443423510669 0 0 0
175 1 -8.263949187990477 -7.292806686558602 -10.395091837079477 0 0 0
47 1 -5.595333572120081 -8.760620824346056 -10.80242565445111 0 0 0
27 1 -3.856126639826007 -8.796164312240357 -9.12817982104437 0 0 0
43 1 -6.4070969463125085 -7.526426048413155 -8.726688748170773 0 0 0
49 1 -2.9557449785514507 -10.00566790067747 -11.225308430490914 0 0 0
29 1 -1.2700284002375017 -10.079656798306345 -9.640737722748412 0 0 0
45 1 -1.8658910493084555 -7.722357690780337 -10.050314134517983 0 0 0
173 1 -10.828879112101903 -6.187411460818028 -10.092712135319351 0 0 0
165 1 -11.475414758802764 -3.847520292191236 -10.590104079560312 0 0 0
171 1 -13.4697918440642 -4.865254503427337 -9.664034599927405 0 0 0
196 1 -8.826213925958932 -5.048493776925925 -10.782230642766418 0 0 0
168 1 -9.819160192148441 -3.952210606843378 -8.925679855807726 0 0 0
169 1 -7.092513712742707 -5.110510166822683 -9.300500831424767 0 0 0
41 1 -4.3873526121923145 -6.396349334127612 -9.72724107925493 0 0 0
163 1 -5.086961380869333 -4.055908097027311 -10.22638650308418 0 0 0
22 1 -0.5200682435621804 -5.373076976719766 -9.062624854214189 0 0 0
24 1 -2.4040051184753484 -5.338751395980427 -10.610063123285983 0 0 0
40 1 -3.1506638405085745 -4.10404827480321 -8.742825761268879 0 0 0
190 1 -12.046677122637435 -1.555873895300362 -10.980554347701842 0 0 0
157 1 -12.886017205875437 -0.2930421455262966 -8.956019662210036 0 0 0
127 1 -12.328692972358422 -2.632509176982394 -8.568579044756799 0 0 0
159 1 -10.21021994503883 -1.6024475993023124 -9.476887435912381 0 0 0
161 1 -7.6596945181548275 -2.755548879117498 -9.799050760619544 0 0 0
185 1 -8.142991720754093 -0.3810154478999266 -10.416735012156728 0 0 0
154 1 -5.540964964759841 -1.6949175102085245 -10.747401611695846 0 0 0
58 1 -3.7351469296499857 -1.910007293146279 -9.137689432598062 0 0 0
532 1 -6.521158085675757 -0.6460868908027351 -8.737369666380133 0 0 0
59 1 -3.0561754726395076 -3.15379608044414 -11.270424423018365 0 0 0
39 1 -1.1223611935449593 -3.041857778977077 -9.688698584558534 0 0 0
526 1 -1.8520562016672795 -0.9333782940900619 -10.212669113198784 0 0 0
469 1 -0.009087155663022983 -0.8591242740391944 -8.485452547697694 0 0 0
116 1 -11.582866851223732 -11.773536337491365 -7.768399520112451 0 0 0
115 1 -12.593958512512302 -10.691547918673145 -5.813409152250275 0 0 0
233 1 -13.650588619323619 -13.020677061833156 -6.897474146784322 0 0 0
118 1 -9.118608336361843 -13.148079339397992 -8.2163395957643 0 0 0
117 1 -9.804489731944736 -11.888726762939186 -6.193442183057392 0 0 0
18 1 -7.321186076169344 -13.17848547884709 -6.6260368405881875 0 0 0
114 1 -7.94199942299207 -10.903260334585184 -7.210111176725682 0 0 0
14 1 -5.182974973262224 -12.214298139747514 -7.620789683188804 0 0 0
15 1 -3.529588519913002 -12.249120875690538 -5.913453318673444 0 0 0
16 1 -2.7876930727724183 -13.346564002453446 -8.062514421204945 0 0 0
12 1 -1.4919118589027658 -11.220932545411522 -7.056125368949631 0 0 0
17 1 -0.8913115499725368 -13.623796036630404 -6.365039878545571 0 0 0
109 1 -13.22072940655148 -8.399020052656809 -6.448153638471519 0 0 0
142 1 -10.999387191602697 -7.33586530976334 -7.3453176924735635 0 0 0
112 1 -10.504187970496439 -9.65633855419208 -6.695584798886525 0 0 0
145 1 -8.51396875579006 -8.62309223147301 -7.7105830580015 0 0 0
139 1 -9.321195979020994 -7.5335132914657885 -5.71170545423816 0 0 0
30 1 -5.869929160890722 -9.907362232470511 -8.155978691736541 0 0 0
108 1 -6.6846408639702695 -8.806399808929715 -5.992184886861649 0 0 0
10 1 -4.115601936224998 -9.827819020738652 -6.5674233842481735 0 0 0
26 1 -4.526423105984128 -7.556305047930025 -7.206956125232658 0 0 0
8 1 -0.26675007881494395 -8.969219163995032 -5.9121130023918855 0 0 0
28 1 -2.0258386092426353 -8.910135851808773 -7.449741305454271 0 0 0
140 1 -13.74201275872592 -6.046653275772289 -6.9811300264384 0 0 0
167 1 -11.69698086204411 -4.978498295141785 -7.980801715078894 0 0 0
96 1 -12.566915717339754 -3.823556032947094 -5.814158639498251 0 0 0
137 1 -9.075834318241732 -6.315978046204821 -8.321967777804474 0 0 0
138 1 -7.339378532271107 -6.222700506509134 -6.671394698934452 0 0 0
135 1 -9.983426806880734 -5.094131906716337 -6.239426261620528 0 0 0
131 1 -7.991391422142653 -4.086885322278222 -7.233224911276119 0 0 0
133 1 -5.270667701953723 -5.251603975036073 -7.848342203114367 0 0 0
23 1 -3.53187814878976 -5.384415248813433 -6.119088480871524 0 0 0
1012 1 -2.58865606300299 -6.531690016170081 -8.099014919551784 0 0 0
25 1 -0.777029158814539 -6.575566495945035 -6.387068653708933 0 0 0
94 1 -1.5121462383970314 -4.267645986985007 -7.020755867331655 0 0 0
126 1 -12.98370786274915 -1.5457241112355078 -6.4119818999966345 0 0 0
98 1 -10.967386076462025 -0.4198726844854246 -7.350050476649187 0 0 0
129 1 -10.585769369194798 -2.7926725923028 -6.849527634013692 0 0 0
160 1 -8.517637556734556 -1.6761560806294789 -7.683575856536456 0 0 0
128 1 -9.24293845551692 -0.4404301702538813 -5.7261349747597965 0 0 0
162 1 -5.921771109975063 -2.935692640010835 -8.131448935405524 0 0 0
123 1 -6.609743863310636 -1.8303598766167877 -6.015595669129693 0 0 0
155 1 -4.701850809429031 -0.7614185931013715 -7.074402096229174 0 0 0
125 1 -4.056868568665671 -3.119804657265103 -6.5719428901910995 0 0 0
525 1 -2.020272071476006 -1.938603148389003 -7.543589568215179 0 0 0
1047 1 -0.23558593234009884 -1.9979483257618629 -5.972873784691744 0 0 0
232 1 -11.896075801192174 -13.065843243122787 -5.276099748603086 0 0 0
202 1 -12.769914941614005 -12.051352966657634 -3.284734373414315 0 0 0
229 1 -10.754678659013134 -10.76864954258054 -4.150529583281571 0 0 0
234 1 -10.145469163487487 -13.175541141194245 -3.692893532068773 0 0 0
231 1 -8.067874843424917 -12.075899313965865 -4.536745375411655 0 0 0
13 1 -6.172707477782729 -11.097700943416447 -5.523606389963222 0 0 0
83 1 -5.497325670753813 -13.38834421227265 -5.040414739054503 0 0 0
79 1 -4.395326702651726 -11.022023492041782 -3.908089476394947 0 0 0
84 1 -3.684541673543242 -13.399203912351215 -3.4244491366007814 0 0 0
82 1 -6.330440738503728 -12.094923340559767 -2.8790783608670463 0 0 0
81 1 -1.7541937341369618 -12.470736508432367 -4.388104472151939 0 0 0
227 1 -13.389971973842187 -9.652428091342161 -3.814214488553203 0 0 0
111 1 -11.438898650431769 -8.521960391353403 -4.690694457397099 0 0 0
113 1 -8.715348029102664 -9.851583282858488 -5.048366577923396 0 0 0
106 1 -9.610688911322935 -8.69314491968029 -3.1159900851892264 0 0 0
107 1 -7.5788360438288045 -7.5670502644589925 -4.099520442592336 0 0 0
226 1 -6.862795893300348 -9.716158615110636 -3.505761204048415 0 0 0
9 1 -4.872759695974693 -8.74927704907174 -4.445360112507764 0 0 0
6 1 -2.9002991971943306 -7.585939696740834 -5.479627903753201 0 0 0
11 1 -2.2927465934459317 -10.09724588412043 -4.855315314582722 0 0 0
77 1 -0.3919861927474937 -10.068997827233124 -3.290622113680284 0 0 0
7 1 -1.1209623938300979 -7.7890994810769145 -3.725294441451778 0 0 0
75 1 -3.1828934061415026 -8.869897798846324 -2.8300232700098036 0 0 0
104 1 -11.980510944086998 -6.098112010612658 -5.285685195556461 0 0 0
103 1 -12.734945545687477 -4.968787721574209 -3.27459304246908 0 0 0
100 1 -10.728501987265222 -3.806968575927831 -4.128241592147862 0 0 0
136 1 -10.14057092543087 -6.383647856577845 -3.730158969329075 0 0 0
144 1 -8.19342649089766 -5.240915198534314 -4.577522808148954 0 0 0
132 1 -6.150792098782146 -4.136527321406147 -5.559086796714752 0 0 0
102 1 -5.529757545263514 -6.5568732780769885 -5.132495416218065 0 0 0
93 1 -4.280175542340194 -4.14308006976148 -3.9398759890014627 0 0 0
5 1 -3.626055531756105 -6.47438461098608 -3.498123165608723 0 0 0
101 1 -6.258363425964579 -5.2124060484784245 -3.072657838924684 0 0 0
1001 1 -1.617883193236592 -5.4223283631386 -4.405276964765134 0 0 0
95 1 -13.39845021932515 -2.5226784819584296 -3.7070098108929415 0 0 0
134 1 -11.331739026353686 -1.4631160957157547 -4.76314567709044 0 0 0
130 1 -8.639522846894316 -2.749026199709858 -5.144185886264799 0 0 0
90 1 -9.46484766125566 -1.5391133044302165 -3.108048282514444 0 0 0
122 1 -7.444378341369758 -0.5095065774552907 -4.125976958480404 0 0 0
92 1 -6.912412925985744 -2.8286193851367187 -3.5076873381273757 0 0 0
124 1 -4.953877224435697 -1.8099880843429847 -4.385425787975635 0 0 0
87 1 -3.015883067274274 -1.9098183581599724 -2.9896552809411805 0 0 0
38 1 -2.857686516600495 -0.5876850738208859 -5.505333160410322 0 0 0
2 1 -0.5078869232409033 -3.075916282928766 -3.250015558829789 0 0 0
21 1 -2.295305844935399 -3.10472167820647 -4.897429158983339 0 0 0
20 1 -1.0917295807069571 -0.8385669719784179 -3.9260054120151207 0 0 0
207 1 -12.853464844028526 -12.968952817174081 -0.7612908657612998 0 0 0
204 1 -10.82426861648378 -11.932342997369762 -1.629797331024184 0 0 0
203 1 -13.524018019734868 -10.741314583312139 -1.2395259438255835 0 0 0
638 1 -8.385959090791525 -13.29632834610897 -1.993238103388416 0 1 0
230 1 -8.816921832431728 -10.906505327686503 -2.5699781746268275 0 0 0
201 1 -7.078795957238796 -11.014699061674524 -0.8204883711546564 0 0 0
70 1 -6.67266062646587 -13.285185100707526 -0.3082753767915989 0 0 0
67 1 -4.5881331198351045 -12.274846453599832 -1.3162796009217974 0 0 0
389 1 -0.10218821131530476 -13.557273469280455 -0.0993581730098736 0 0 0
76 1 -0.6688476066215063 -11.241882894192557 -0.6970778712074353 0 0 0
80 1 -2.476002187866957 -11.11187672347984 -2.256408244405616 0 0 0
69 1 -1.912688650596582 -13.478008582301587 -1.8227237770635494 0 0 0
222 1 -12.19678015998092 -7.318900940329087 -2.671340220098294 0 0 0
228 1 -11.491554867722957 -9.625095045550239 -2.212374867863982 0 0 0
199 1 -12.227996143660944 -8.510642873844763 -0.1451619714439225 0 0 0
224 1 -10.286694437801353 -7.298944050849762 -1.0693423642555206 0 0 0
200 1 -9.79991294526819 -9.772874558258161 -0.5926702548060803 0 0 0
225 1 -7.737883518726136 -8.624548518692787 -1.4523081395475668 0 0 0
78 1 -5.239932464684427 -9.937670511560775 -1.8739056843729678 0 0 0
220 1 -5.838725228847009 -7.612302712051335 -2.40384756880775 0 0 0
74 1 -3.910725913068571 -7.600335761792426 -0.9753297668175751 0 0 0
372 1 -3.330812246675128 -9.957369048976147 -0.2640740714698353 0 0 0
73 1 -1.3623390049822266 -8.908809801823443 -1.210237944507119 0 0 0
214 1 -13.529626602290127 -3.7750150103070226 -1.1735672563900401 0 0 0
105 1 -10.88275019686975 -4.983893889659878 -1.6635838245299315 0 0 0
221 1 -12.752236964458627 -6.092372005375018 -0.6474684965923121 0 0 0
218 1 -8.298975477572792 -6.289973598519818 -2.0041128643257853 0 0 0
99 1 -8.927859572132554 -3.966803912927926 -2.4784353730294306 0 0 0
212 1 -7.130159645468533 -4.011331552610489 -0.9928663420296733 0 0 0
219 1 -6.561670165020017 -6.270550498535628 -0.32316897513898724 0 0 0
213 1 -4.5115786339075505 -5.1695960328965676 -1.379047277892262 0 0 0
1379 1 -0.08387553687458116 -6.599301519779018 -0.08179195453925558 0 0 0
72 1 -1.9002963387515521 -6.5350823895331525 -1.7994149884459087 0 0 0
4 1 -2.4392960107986426 -4.177158575990948 -2.3189914060950247 0 0 0
71 1 -0.5474625179696275 -4.364636739956646 -0.6768125937796992 0 0 0
88 1 -12.139274126053522 -0.310138830576836 -2.71082663245852 0 0 0
97 1 -11.666111988601168 -2.6688763055968323 -2.2082687849845684 0 0 0
210 1 -12.437186094089972 -1.5258192144107632 -0.05768404283341333 0 0 0
473 1 -10.396791430673801 -0.4012664273019535 -1.0373500538323732 0 0 0
89 1 -9.759679834585636 -2.7707613706348777 -0.43092956911247526 0 0 0
91 1 -7.6987030120854625 -1.663350642096276 -1.4042501419935824 0 0 0
85 1 -5.729774226218208 -0.5559075615803319 -2.41602018515073 0 0 0
208 1 -5.0396150838845415 -2.8983964328380942 -1.8548019201887538 0 0 0
937 1 -3.884294930517056 -0.6210432264074353 -0.7436698951545431 0 0 0
1 1 -1.4089906880365604 -1.9249345748818012 -1.1359454804954172 0 0 0
3 1 -3.2392252030049367 -3.190908196198773 -0.16205634919388245 0 0 0
403 1 -11.100138002266526 -13.138989453665438 0.9634224724311018 0 0 0
404 1 -11.872655319869498 -10.869584721029867 0.5478289020544427 0 0 0
413 1 -13.875528759713836 -11.872538176217546 1.4788777021907116 0 0 0
410 1 -7.3899457388193275 -12.011061647163706 1.7698549874245018 0 0 0
205 1 -10.057097093718538 -10.697199086125373 2.1868122958447973 0 0 0
417 1 -9.384156383566024 -13.142961897075368 2.668741239548032 0 0 0
206 1 -9.155069820251416 -12.005035561961556 0.14693676240428744 0 0 0
394 1 -4.792368808134208 -13.245444315457528 1.2895148186673655 0 0 0
392 1 -5.361697769838534 -11.027963241351708 0.8496733236275347 0 0 0
380 1 -3.5514254637673 -11.11345887683482 2.34096051053527 0 0 0
388 1 -0.900699963628405 -12.430490707920315 1.8577986327830605 0 0 0
65 1 -2.7176157022129512 -12.32200560121802 0.2898244877798213 0 0 0
466 1 -12.492870021601888 -9.594438780277578 2.7157562730264164 0 0 0
461 1 -10.53304316844671 -8.495531237103016 1.5621978677119817 0 0 0
467 1 -13.069134739937834 -7.1930122659010385 1.8265163089784586 0 0 0
379 1 -7.964065828457683 -9.761920503757867 1.2666620260577144 0 0 0
217 1 -8.439801453663577 -7.325519612688291 0.624533317333162 0 0 0
383 1 -6.781060113217171 -7.541415325064648 2.213888899982523 0 0 0
385 1 -4.118442654389865 -8.698401225253843 1.8572498954641805 0 0 0
198 1 -5.7285175234561265 -8.734512539320134 0.19736968483000616 0 0 0
377 1 -1.4086249756456208 -10.034336229125028 1.3917094436990674 0 0 0
375 1 -2.1561717540009067 -7.758989172295711 0.7802304242331495 0 0 0
376 1 -0.4192404554807414 -7.8786613321855485 2.4907107764703813 0 0 0
223 1 -10.997230151092099 -6.198109424336597 1.120866254381399 0 0 0
216 1 -11.768138232689763 -3.7802383382865425 0.5030886465299265 0 0 0
1299 1 -13.680857965376362 -4.947818450395575 1.385548645075657 1 0 0
211 1 -9.080292361397241 -5.050349869492486 0.0462029704677569 0 0 0
456 1 -10.029281842223558 -3.880856906016451 2.150326787821319 0 0 0
457 1 -7.3184163117376615 -5.102445179351621 1.618147348367815 0 0 0
460 1 -9.269217441444962 -6.298033470437669 2.7033377012602653 0 0 0
374 1 -4.737697331651388 -6.397424222554046 1.2152527727007243 0 0 0
209 1 -5.374271649997134 -4.013054086052618 0.7839022593146403 0 0 0
243 1 -3.4876168769327194 -4.07892096886731 2.420609473905122 0 0 0
245 1 -0.8711422383259126 -5.516991709653709 1.9725243634685814 0 0 0
370 1 -2.668506320704031 -5.431849448494228 0.1947289410849038 0 0 0
443 1 -12.67686008838401 -2.6884274572848046 2.5868653161244506 0 0 0
215 1 -10.767648376355263 -1.5843629217380037 1.5450172829876294 0 0 0
1301 1 -13.26311460544716 -0.2613138223230944 2.042210491441585 1 0 0
454 1 -7.952454453388167 -2.6364437518211012 1.310331567808273 0 0 0
451 1 -8.64686175256502 -0.40681491657287516 0.6917760429510196 0 0 0
868 1 -6.948553819198414 -0.3697495314865673 2.2301980551640685 0 0 0
882 1 -5.971804858356653 -1.716652898490775 0.21090137844426415 0 0 0
86 1 -4.169035792058043 -1.8919210287892803 1.8018176415054477 0 0 0
237 1 -1.5107177070939137 -3.2197808015126768 1.392927790159714 0 0 0
235 1 -2.2031878519738832 -0.7620280962203694 0.9533342662130337 0 0 0
369 1 -0.4486832034493524 -0.8245259815049799 2.478166707306391 0 0 0
405 1 -12.011769924120621 -11.934029210455277 2.9883434304137193 0 0 0
416 1 -12.879853754028169 -10.711911797914809 5.235426663346692 0 0 0
925 1 -12.267363129454083 -13.121623293770554 5.63977644843593 0 1 0
323 1 -10.22716541970894 -11.969586617055002 4.6863741548382425 0 0 0
411 1 -7.61734425211965 -13.359036478340387 4.307482643842631 0 0 0
722 1 -8.175317948588738 -10.890713622004938 3.817641932106957 0 1 0
393 1 -5.677028487158092 -12.28957758883809 3.42488098934661 0 0 0
401 1 -3.7448564531733464 -12.247672063673235 4.860729964151927 0 0 0
399 1 -6.373796826479963 -10.9063294616276 5.446620770368375 0 0 0
381 1 -2.8632175849622943 -13.478873340482894 3.021651952687419 0 0 0
268 1 -1.7461900029426847 -11.149895734800678 3.999794286808635 0 0 0
402 1 -1.240769408548264 -13.442317431163541 4.584414270551024 0 0 0
1346 1 -13.481328143980143 -8.49710317754365 4.565333127870565 1 0 0
408 1 -10.754291987369506 -9.690386543686412 4.2692405348259985 0 0 0
465 1 -11.435433801331918 -7.439067586501067 3.647297073788403 0 0 0
396 1 -8.737476892380284 -8.534504705913807 3.385409437504995 0 0 0
294 1 -9.62851701390887 -7.362487226102748 5.2762708860927585 0 0 0
398 1 -6.100354710457737 -9.828199087883682 2.937642890740465 0 0 0
296 1 -6.936554207476513 -8.563109353690042 4.944461643424555 0 0 0
400 1 -4.44907265946709 -9.958889079516421 4.5340784163449595 0 0 0
386 1 -4.994319737980387 -7.467331192002494 3.8712344030343484 0 0 0
387 1 -2.4969087952412963 -8.906950357222591 3.4460497530474665 0 0 0
276 1 -0.6006795611403106 -8.75650812233782 5.164018666864896 0 0 0
267 1 -3.21974632122142 -7.619193899119092 5.478644580344218 0 0 0
464 1 -12.039378500733266 -5.015312862698989 3.096711291414879 0 0 0
463 1 -12.868305796798651 -3.860875086352312 5.2304608812201945 0 0 0
441 1 -10.259064534444583 -5.017799523462456 4.772048308723301 0 0 0
384 1 -7.5333090785284735 -6.269678352375067 4.32454658819462 0 0 0
449 1 -8.218208617556872 -4.022180895402956 3.7081856317738318 0 0 0
272 1 -6.4423493648144365 -3.883988683173012 5.446514935096419 0 0 0
264 1 -5.4892764012363156 -5.110069297074027 3.3422270536212455 0 0 0
244 1 -3.9167834699205173 -5.273644008260222 5.222576238719052 0 0 0
266 1 -2.9636521395309057 -6.442502798093324 2.8660510381029045 0 0 0
246 1 -1.1704208844562292 -6.567766969453353 4.477999089015038 0 0 0
236 1 -1.8504211306370575 -4.292248492655904 4.119452653973953 0 0 0
764 1 -13.438084662081014 -1.5106094667748664 4.671961683853217 0 0 0
459 1 -10.887335021576497 -2.6787799069730145 4.134912456655913 0 0 0
807 1 -11.523190090673191 -0.3156981673888861 3.572201007806223 0 0 0
450 1 -8.93241846924382 -1.7433620464720274 3.3113910032930267 0 0 0
802 1 -9.642060254464699 -0.4764342356702347 5.2434636927020986 0 0 0
866 1 -7.084330901027501 -1.6374539166903777 4.833739932899318 0 0 0
453 1 -6.231119133622774 -2.834872128801578 2.84154753758545 0 0 0
249 1 -4.487967614226822 -2.883909839250613 4.520893275047561 0 0 0
455 1 -5.014802865888331 -0.5984554696544233 3.858451050707009 0 0 0
239 1 -2.4533668770049886 -1.9928872687642585 3.510984639369193 0 0 0
240 1 -0.5699950010077739 -1.9578927798615346 5.085243606380745 0 0 0
255 1 -3.346441070060635 -0.6815590571335051 5.605443596741603 0 0 0
420 1 -13.274349107815148 -11.890025226826985 7.763217845477746 0 0 0
1354 1 -11.069420836501132 -10.725007444245588 6.8030197707219475 1 0 0
363 1 -10.557940084948589 -13.045087290564828 7.369567909002972 0 0 0
349 1 -8.533841336982851 -11.977466789467687 6.377250519707571 0 0 0
324 1 -9.425176700611967 -10.970795578149604 8.451480779005104 0 0 0
412 1 -5.9173119090754716 -13.254139165100854 5.884961668520125 0 0 0
329 1 -6.739580117577238 -12.208287432522438 7.9144896420142405 0 0 0
737 1 -4.10590256197105 -13.475715762169646 7.593244950681173 0 1 0
327 1 -4.650329685336121 -11.188001151599762 7.051178723890901 0 0 0
271 1 -0.3330774550589588 -12.460832848037526 8.270540134575066 0 0 0
300 1 -2.0846604328374294 -12.384406636944718 6.670615896414736 0 0 0
270 1 -0.019999111552600368 -11.276515011037837 5.720751647350847 0 0 0
468 1 -11.849238784823076 -8.439760327655254 6.204859964319988 0 0 0
1317 1 -12.387303686767549 -7.37399960163688 8.35379425447013 1 0 0
1336 1 -13.69496403394911 -9.443207298730645 7.280684286652514 1 0 0
409 1 -8.869112256523543 -9.641845897397193 5.900639610898372 0 0 0
325 1 -7.261125510012097 -9.779049035568782 7.468551666006258 0 0 0
391 1 -9.891460080028217 -8.631956800977377 7.893632378003042 0 0 0
295 1 -7.9266544429215395 -7.450973788209948 6.884069732498778 0 0 0
297 1 -5.201418875252347 -8.82548761498537 6.588256554184289 0 0 0
306 1 -3.4588232382410347 -8.857355204308181 8.285977155857738 0 0 0
298 1 -2.5427792809051404 -10.046353758968294 6.044274069735733 0 0 0
269 1 -0.8475763873802808 -10.046474675114839 7.736081352347865 0 0 0
284 1 -1.470028854398933 -7.755298484942774 7.250193055947081 0 0 0
431 1 -12.299074787246536 -6.187334100670359 5.67482891095055 0 0 0
429 1 -13.295026474721682 -4.904895413925946 7.667415090283251 0 0 0
437 1 -11.043944415135527 -3.897632625974646 6.775380048285141 0 0 0
440 1 -10.477240435060502 -6.154280612519755 7.251517778551657 0 0 0
448 1 -8.359646055360255 -5.137312371120304 6.329248730556097 0 0 0
436 1 -9.309365162967154 -3.849578738786507 8.43934835165514 0 0 0
265 1 -5.928111383864117 -6.285379742640639 6.048765308349617 0 0 0
312 1 -6.6551199392141065 -5.161984468996746 8.00798174353636 0 0 0
275 1 -4.100488070355034 -6.516176234966075 7.597192544402654 0 0 0
273 1 -4.651627860674719 -4.103487585724098 7.1694176966571685 0 0 0
274 1 -2.1120914954439094 -5.460541157035751 6.601889921095184 0 0 0
252 1 -0.30013815737000726 -5.4497378996686585 8.303107449299093 0 0 0
251 1 -0.00591252958326649 -4.189524679810248 5.800534073444039 0 0 0
442 1 -13.696869245892493 -2.498722502056639 7.194576076648387 0 0 0
439 1 -11.602974008119492 -1.4183179266576502 6.240825501116079 0 0 0
438 1 -12.453874240982383 -0.24269010508633748 8.36013768904119 0 0 0
446 1 -8.953040245643532 -2.8457199273438807 5.786446193048908 0 0 0
445 1 -7.312592284415848 -2.7866842045160425 7.638737764293873 0 0 0
447 1 -9.938367916278526 -1.5565653418019245 7.966082901343777 0 0 0
867 1 -8.008963265708989 -0.44899962560411666 6.882239152391557 0 0 0
452 1 -5.337228202496371 -1.717797896987845 6.514065464589423 0 0 0
256 1 -3.4186643476157315 -1.8115560201618166 8.181875896159978 0 0 0
250 1 -2.613780142401634 -3.061155311089749 6.123463857413308 0 0 0
257 1 -0.8397056374400993 -2.993747605483538 7.707559989874971 0 0 0
703 1 -1.4590348960080846 -0.6881995315438072 7.101151152195852 0 0 0
1258 1 -13.347723332989366 -13.082330057808315 10.376389077019 1 0 0
347 1 -11.415184205650617 -12.057288320927825 9.379014698724676 0 0 0
350 1 -8.765191877364312 -13.311900841832928 8.936761672790448 0 0 0
326 1 -7.51892382749112 -10.90795744053584 10.013794628235098 0 0 0
348 1 -9.613535084193654 -12.065321025935225 11.068132623965449 0 0 0
869 1 -7.015293324804756 -13.302061035542572 10.623166112029528 0 1 0
336 1 -4.901302290700061 -12.192680215017848 9.58944920491742 0 0 0
299 1 -2.9863876730584824 -11.135590980683416 8.722952800308166 0 0 0
1250 1 -0.5921516283471409 -13.656119787846592 10.814256212267951 0 0 0
301 1 -2.3435632046234485 -13.515466713633357 9.2540790372193 0 0 0
308 1 -1.2059651695759435 -11.255660254930206 10.325497220984316 0 0 0
1347 1 -11.950713626399745 -9.729275904033134 8.810935885968886 1 0 0
353 1 -12.86058946325031 -8.554725737657051 10.918115672686541 0 0 0
397 1 -10.700328858260626 -7.380948384636914 9.964841037775146 0 0 0
352 1 -10.133713400691612 -9.690718525787183 10.543523653578566 0 0 0
332 1 -8.216061605896787 -8.573502368092509 9.487666052065196 0 0 0
304 1 -6.195756605961915 -7.46298561592065 8.489583249188039 0 0 0
305 1 -5.562695534461094 -9.838251608098702 9.168390721186773 0 0 0
303 1 -4.420610324001986 -7.72252399150854 10.199656353337401 0 0 0
307 1 -3.747222269638236 -10.045995024436387 10.861804717039904 0 0 0
334 1 -6.316407418697994 -8.602071059313957 11.23951048511122 0 0 0
277 1 -1.8065460591637112 -8.757015496248908 9.807752204207956 0 0 0
1361 1 -13.473723060267618 -6.196169530237758 10.47795685643859 1 0 0
428 1 -11.446884967870595 -5.159059209011376 9.413975113320204 0 0 0
302 1 -8.87185065359342 -6.223303488847546 8.999086488777943 0 0 0
338 1 -9.582660782366577 -5.037059933884795 11.063003714252043 0 0 0
320 1 -7.485676618479088 -4.105486547946304 10.141148080609417 0 0 0
331 1 -6.87264422720414 -6.261601416264766 10.558174142234899 0 0 0
314 1 -4.857641560072549 -5.319720960739666 9.596559669592986 0 0 0
282 1 -2.8143137497181794 -4.204268410523872 8.654879792417665 0 0 0
254 1 -0.37527500877816955 -6.483786766417226 10.931725853376912 0 0 0
283 1 -2.2908910981410493 -6.4570759768956 9.373025015062028 0 0 0
258 1 -1.119813145800494 -4.267020142937081 10.17305630122405 0 0 0
291 1 -3.133491760445784 -5.368748412542562 11.298547708233846 0 0 0
425 1 -11.893617713293942 -2.7298068846190198 8.805165293659522 0 0 0
426 1 -12.734318871682945 -1.505970051121782 10.855464289076819 0 0 0
435 1 -10.762501796079965 -0.4665454472570616 9.94689429774685 0 0 0
433 1 -10.135515889108259 -2.798736222536105 10.57808917383372 0 0 0
434 1 -8.03879190964326 -1.6269278448846674 9.603494304583522 0 0 0
795 1 -6.134118589393894 -0.6417992091352556 8.597995766765111 0 0 0
280 1 -5.368192300865468 -2.8620806163052936 9.149109756096978 0 0 0
290 1 -3.656243471734321 -3.0555219228652994 10.684433106074858 0 0 0
856 1 -4.255042239972482 -0.6903053076740022 10.121267749410057 0 0 0
444 1 -6.27428377154568 -1.8039857886387267 11.27302952076917 0 0 0
262 1 -1.6308307530908142 -1.960031224365462 9.681800780062156 0 0 0
368 1 -12.405434574701514 -11.79119052123869 14.036887967800945 0 0 0
365 1 -12.239832251087273 -10.793930601424767 11.435076383996387 0 0 0
355 1 -11.700223526175446 -13.167198994315882 12.029625953224619 0 0 0
356 1 -10.458776110993755 -10.871645174219154 13.101052792869806 0 0 0
55 1 -9.767582085111677 -13.174345627444952 13.613805567921554 0 0 -1
328 1 -7.814187439633262 -12.155199293128772 12.665692208904863 0 0 0
309 1 -5.225744271313502 -13.407837202931496 12.114434293514803 0 0 0
335 1 -5.858292003803243 -10.963982019422996 11.799869256250242 0 0 0