LAMMPS data file via write_data, version 29 Sep 2021, timestep = 0

1795 atoms
3 atom types

-13.511515606822938 13.511515606822938 xlo xhi
-13.596824529430862 13.596824529430862 ylo yhi
-14.405141086326353 14.405141086326353 zlo zhi

Masses

1 55.847
2 1.008
3 1.008

Atoms # atomic

602 1 -12.584941416861321 -13.27151473333898 -12.090593540175181 0 1 0
151 1 -11.093011769175906 -11.833687158351372 -13.46923650743204 0 0 0
133 1 -12.828287203566918 -10.491399007190099 -12.322207143999691 0 0 0
547 1 -9.834911112023718 -13.162775686679229 -11.968801204286393 0 1 0
197 1 -8.265411122844188 -11.72043255062064 -13.363623888273539 0 0 0
598 1 -6.978886514767486 -12.96873615239103 -11.77605380501297 0 1 0
195 1 -5.255034245486687 -11.58164173859345 -13.184017254005813 0 0 0
543 1 -4.089262602922396 -12.867884512647358 -11.693447898050014 0 1 0
184 1 -2.662685028489296 -11.371291573540637 -13.046223392581453 0 0 0
1006 1 -12.98870498749252 -7.666382522718464 -12.480274072141766 1 0 0
278 1 -11.305612528574354 -9.007655282243675 -13.74683750507192 0 0 1
200 1 -9.94843625872915 -10.206028400127966 -12.056631132268222 0 0 0
185 1 -10.016439784235132 -7.394422161913796 -12.333764766249555 0 0 0
168 1 -7.086346267275452 -9.99694337626603 -11.903301347044911 0 0 0
170 1 -8.474451015377394 -8.898283191863584 -13.543314001557441 0 0 0
186 1 -7.2165081522813965 -7.238292549779697 -11.970396258213661 0 0 0
166 1 -4.1938608548786345 -9.828630742965338 -11.631836622609542 0 0 0
187 1 -5.60742208740364 -8.73510981997321 -13.20968902761163 0 0 0
188 1 -4.434407939285501 -6.9777230221999496 -11.855256486329427 0 0 0
189 1 -2.691870982732416 -8.47153132441543 -13.143281180039425 0 0 0
210 1 -1.4667494214795056 -6.907305071960204 -11.664614168246242 0 0 0
164 1 -1.388532499476847 -9.739965505016727 -11.591302241160262 0 0 0
202 1 -11.50689400245507 -6.191403003402326 -13.873816781451978 0 0 0
1015 1 -13.080438454707902 -4.8431286854808455 -12.592017769549159 1 0 0
158 1 -10.20215590085834 -4.4570882394734355 -12.261172108750236 0 0 0
159 1 -7.313823296526619 -4.4606055748927815 -12.208635258615208 0 0 0
204 1 -8.567162609876164 -6.013033686109833 -13.667240368700087 0 0 0
160 1 -4.546671526849385 -4.19311715002123 -11.924028697440757 0 0 0
206 1 -5.6577228240381725 -5.934546367494958 -13.451822970755256 0 0 0
156 1 -2.838301497611429 -5.729753120231379 -13.289902011759732 0 0 0
161 1 -1.6040362718261818 -4.149940326301156 -11.840037001439082 0 0 0
1303 1 -0.8962240684695644 -2.013575172093395 -1.3229925456639595 0 0 0
157 1 -11.596163951788943 -3.370554824335855 -13.860305613632416 0 0 0
173 1 -11.734532132865677 -0.5904091450781852 -13.998707726075 0 0 0
987 1 -13.146502575004195 -1.952514404844731 -12.705852348201004 1 0 0
174 1 -10.187482772369455 -1.8654765577426033 -12.396802788626536 0 0 0
175 1 -8.659030208849963 -3.138798702447737 -13.79842451386731 0 0 0
153 1 -8.735066959385842 -0.40585732704671074 -13.925005342090339 0 0 0
176 1 -7.32532361198749 -1.6113593409887148 -12.367152174584636 0 0 0
177 1 -5.847057747392096 -3.0958500980306543 -13.578196282150092 0 0 0
179 1 -4.5540502103790175 -1.5188048660955573 -12.070314184443983 0 0 0
154 1 -5.880368706458125 -0.2150853169172393 -13.680262309919705 0 0 0
416 1 -2.640604093503166 -0.5395529092153986 -0.25030919946984653 0 0 0
261 1 -2.8886973774639326 -3.0299495213405443 -13.447599331387494 0 0 1
181 1 -1.665837264414435 -1.3507196005034885 -11.950395954541955 0 0 0
959 1 -0.12600163192769465 -2.7197488966050205 -13.309502801638615 0 0 0
66 1 -11.398376552431987 -11.603348769522723 -10.721084429358921 0 0 0
1119 1 -12.88067313056345 -13.052690535498527 -9.20624536701856 1 0 0
64 1 -10.105832054102706 -12.895915748181613 -9.181791725804647 0 0 0
198 1 -8.551616065545375 -11.530119511407719 -10.51192322589159 0 0 0
149 1 -7.176532949324189 -12.726934362053951 -8.857883644537829 0 0 0
196 1 -5.796958574677562 -11.329363749794608 -10.379504370942598 0 0 0
128 1 -4.407014935411427 -12.537719427044028 -8.777200281468243 0 0 0
192 1 -1.4056237318878946 -12.658478752916338 -11.40319839499621 0 0 0
194 1 -3.0012884492745666 -11.2412048625275 -10.210036405355115 0 0 0
68 1 -3.864215202915849 -2.0228372560880725 -1.7808186770678116 0 0 0
125 1 -13.086227158265457 -10.088970555031246 -9.410833316670455 0 0 0
171 1 -11.488030237768946 -8.792466923009869 -10.834912523605192 0 0 0
141 1 -10.240191164583864 -7.162984682605761 -9.386244788560978 0 0 0
143 1 -13.130530617226054 -7.259084613922292 -9.48214109574072 0 0 0
123 1 -10.052305303438839 -9.869103419736451 -9.194752746348371 0 0 0
131 1 -7.407182443008917 -9.793464903356893 -9.07385648827222 0 0 0
169 1 -8.760422192889987 -8.512361635918724 -10.622524731518226 0 0 0
139 1 -7.420148025243731 -6.9679258490998786 -8.987297547294261 0 0 0
167 1 -5.892542447463443 -8.42737235253504 -10.399699586387916 0 0 0
137 1 -4.577894612574598 -9.710314307860994 -8.757282594408194 0 0 0
208 1 -4.689552578370199 -6.738294664599959 -8.878316152434241 0 0 0
165 1 -2.9977390940581348 -8.296637807061707 -10.219140412617307 0 0 0
289 1 -3.8091573072122404 -12.941649404983412 -14.340919032834472 0 0 1
203 1 -11.674195909011685 -5.988411145847839 -10.999266054417737 0 0 0
112 1 -10.554751267514213 -4.250307811025712 -9.441231133895009 0 0 0
114 1 -13.279666165547546 -4.508730039186252 -9.702768123166736 0 0 0
205 1 -8.817445870339089 -5.761323962506769 -10.715866934657669 0 0 0
216 1 -7.578857744128881 -4.291626185706166 -9.24404299954486 0 0 0
207 1 -6.044356274533306 -5.654320550624766 -10.543464591702605 0 0 0
218 1 -4.860219549727276 -4.114299430077505 -9.097252109202877 0 0 0
135 1 -1.7350263692976995 -6.60266001009269 -8.799925679352544 0 0 0
190 1 -3.1320978258696055 -5.446605125741378 -10.407861478131766 0 0 0
220 1 -1.8575229365683334 -3.857259458664137 -8.954991651890381 0 0 0
211 1 -0.2645465594648737 -5.332932605195184 -10.405868425123707 0 0 0
18 1 -6.558509310730442 -13.300682755042903 -1.5505080433555545 0 0 0
212 1 -11.860810340933696 -3.058812487643511 -11.046405816576284 0 0 0
213 1 -10.517030269903087 -1.4114009993302883 -9.549519996303989 0 0 0
222 1 -11.944833775265279 -0.36059721385358046 -11.11979491946147 0 0 0
214 1 -8.798052441408032 -3.0428259140482563 -10.89632734390274 0 0 0
226 1 -7.707900806493726 -1.3653575514862109 -9.411366018955032 0 0 0
224 1 -9.051306227537602 -0.10819152415983702 -10.959199647971287 0 0 0
178 1 -6.131908457501086 -2.830993833986012 -10.706936284035896 0 0 0
219 1 -4.866223410293129 -1.2092703782655025 -9.279849016694152 0 0 0
180 1 -3.1359630903154034 -2.694733076345864 -10.513235467655171 0 0 0
1100 1 -1.9460111646933758 -1.1894653584293042 -9.04152849943572 0 0 0
963 1 -0.4224380800918617 -2.580758406151146 -10.375428792106066 0 0 0
144 1 -11.546664387720117 -11.311425808877722 -7.8732085491579555 0 0 0
55 1 -10.251089145603565 -12.56974720696279 -6.323811240493113 0 0 0
1467 1 -13.201273180295805 -12.667924260865428 -6.373492377223995 1 1 0
132 1 -8.803389297427085 -11.169251405585042 -7.719497707855514 0 0 0
62 1 -7.582449518796896 -12.425994723730506 -5.944402000615453 0 0 0
148 1 -6.003604261124835 -11.08495907049007 -7.535019125191963 0 0 0
146 1 -1.6462410636902494 -12.432077012194856 -8.467794905095245 0 0 0
118 1 -3.1273005699066694 -11.005273380379968 -7.3398344717735915 0 0 0
117 1 -0.41872474525737324 -10.789006346779395 -7.171808840063177 0 0 0
537 1 -3.337693940834633 -13.447013009665822 -4.232956098796185 0 1 0
417 1 -5.64347548231696 -0.6258400017856367 -0.4505926094443726 0 0 0
142 1 -11.763565596944499 -8.499870464965298 -7.876630535866492 0 0 0
115 1 -10.311524825939486 -9.848487697621028 -6.4362348094967965 0 0 0
1082 1 -13.281855762661625 -9.814703005521341 -6.533256690908505 1 0 0
103 1 -10.64783382399452 -6.945325439304627 -6.654671448895533 0 0 0
228 1 -6.191723078057051 -0.06441095197745028 -10.841957153464456 0 0 0
140 1 -9.04993827917692 -8.32470572604144 -7.679157779771441 0 0 0
130 1 -7.605763170612624 -9.59517527339733 -6.319392740053068 0 0 0
119 1 -6.116463071886727 -8.187795049403224 -7.493305347268655 0 0 0
120 1 -4.70568967399106 -9.392048473812379 -5.991407986170925 0 0 0
108 1 -3.3324228485944634 -7.958772664697594 -7.3616069701060045 0 0 0
127 1 -1.6216633047533744 -9.632165784284714 -8.82974371975978 0 0 0
134 1 -0.48239376068193884 -8.010125891069688 -7.307055176641974 0 0 0
106 1 -1.9577088571036523 -9.210071067718967 -5.864421557907665 0 0 0
113 1 -11.978320276943226 -5.728124653560802 -8.18736471110924 0 0 0
82 1 -10.593480165742253 -3.9933811295549617 -6.681479318436365 0 0 0
111 1 -7.8095740776285805 -6.787188586950401 -6.311957607027461 0 0 0
110 1 -9.110130018605101 -5.469859517142343 -7.983977880136396 0 0 0
81 1 -7.8818193677875 -3.8485225919434036 -6.368169205020594 0 0 0
138 1 -5.012169458390142 -6.56248392567945 -5.9390113482766385 0 0 0
136 1 -6.306060734454217 -5.440179017358682 -7.557388789718323 0 0 0
79 1 -4.981567203834823 -3.7808799783762854 -6.21238400074879 0 0 0
209 1 -3.218385809492535 -5.234114344878778 -7.566165617398585 0 0 0
221 1 -0.4533706737365595 -4.977259981739474 -7.384988822613185 0 0 0
105 1 -1.8649559172487606 -6.532304052450243 -5.898544815414651 0 0 0
937 1 -2.0120976407698183 -3.7149993485525528 -5.900357837684318 0 0 0
85 1 -12.082463162920124 -2.7643253615406156 -8.184234502027579 0 0 0
44 1 -10.73618500652151 -1.0790601110339963 -6.784065819078963 0 0 0
215 1 -9.12254422639716 -2.672132187089458 -7.993287721275279 0 0 0
30 1 -7.998505761990486 -1.0769591995722987 -6.5227992609712295 0 0 0
217 1 -6.244839405408356 -2.44799507803962 -7.898874578037766 0 0 0
78 1 -5.066159950341495 -0.9064521263451724 -6.358864328393013 0 0 0
77 1 -3.5560446341757803 -2.533337533212972 -7.519783096232105 0 0 0
1004 1 -0.5851048961357872 -2.336308010035488 -7.429325975412406 0 0 0
76 1 -2.207048943665587 -0.8279957807758347 -6.0629729332436 0 0 0
41 1 -11.888790952910973 -11.101828616740798 -5.010261933232549 0 0 0
948 1 -10.690352989199852 -12.27905514554191 -3.4141859686958114 1 0 0
421 1 -2.355432467507427 -3.3153891466502667 -0.0018995344495476019 0 0 0
124 1 -9.147745175017555 -10.889983407920125 -4.751265538702075 0 0 0
53 1 -8.014719692265327 -11.990023427249564 -3.1046397547639177 0 0 0
60 1 -4.753130409338141 -12.23594251795381 -5.794430176824433 0 0 0
51 1 -6.297730084734514 -10.741656528568015 -4.492014474162362 0 0 0
63 1 -5.134477366782441 -12.069782439610542 -2.873244148998662 0 0 0
49 1 -3.5987045239909 -10.631184965379449 -4.405316396984881 0 0 0
57 1 -1.7687983720653424 -12.12456711467501 -5.677402761486798 0 0 0
56 1 -0.5866581210055806 -13.26397974075105 -4.099540432636944 0 0 0
116 1 -0.6690222439864879 -10.395011393682319 -4.20206041694834 0 0 0
949 1 -13.321662188765142 -12.31225504042787 -3.435054834589863 1 0 0
1052 1 -12.071716563099253 -8.242130592591295 -5.065545406074568 1 0 0
122 1 -10.798643834566017 -9.500284314313909 -3.419625329262205 0 0 0
121 1 -9.337407415465066 -8.029470331543976 -4.878639619616443 0 0 0
39 1 -7.915405105622226 -9.232542257851668 -3.3905223818491805 0 0 0
101 1 -6.301535178032428 -7.960615725604358 -4.729525341147134 0 0 0
37 1 -5.006760776244194 -9.196339211547501 -3.1484068182183496 0 0 0
99 1 -3.4849998060489575 -7.6078294877646115 -4.497122392295573 0 0 0
895 1 -0.652815223306245 -7.677436442484852 -4.228303885241051 0 0 0
104 1 -11.051053093319055 -6.559794005557293 -3.605093508745833 0 0 0
93 1 -12.15421903266983 -5.442673761164032 -5.307132443800382 0 0 0
84 1 -10.93889478850876 -3.870456764702597 -3.8936390695956042 0 0 0
102 1 -8.032949814837563 -6.547584535465987 -3.4583394562750556 0 0 0
83 1 -9.277243200239749 -5.336462141383276 -5.088594923455647 0 0 0
90 1 -8.106218111559388 -3.5909490106432767 -3.5844556020825458 0 0 0
109 1 -6.592385466689395 -5.1067833585500395 -4.7935010687999675 0 0 0
89 1 -5.158493867765859 -6.265971088913534 -3.261207221230965 0 0 0
107 1 -3.5695837509281247 -4.9871922840571585 -4.808939496739168 0 0 0
88 1 -5.161717833782985 -3.486175322389885 -3.3337552877139434 0 0 0
936 1 -0.5910250846282477 -4.935738998885222 -4.3676445009842695 0 0 0
97 1 -2.2074154347958217 -6.07179944549342 -3.0349446428132545 0 0 0
86 1 -2.1778382497601196 -3.424073747047883 -2.909758516750621 0 0 0
45 1 -12.358946736071587 -2.5145546376008383 -5.378680483253888 0 0 0
659 1 -11.046310630083482 -0.8321405128782846 -3.9604379930448115 0 0 0
91 1 -9.505128144164324 -2.3373341678823714 -5.1942561086997046 0 0 0
71 1 -8.282509215432176 -0.8154816624655439 -3.698225507076989 0 0 0
80 1 -6.576937452518412 -2.378820315050797 -5.021991244157354 0 0 0
67 1 -5.303556138736788 -0.6579993955024008 -3.3874684271819753 0 0 0
87 1 -3.6107202912376355 -2.236033845685162 -4.712145954332712 0 0 0
919 1 -2.42704733327807 -0.6199914355596192 -3.1751460943297385 0 0 0
927 1 -0.7234850815534397 -2.17736279398326 -4.396807699118012 0 0 0
21 1 -11.156560847053024 -12.129359698773714 -0.5192468194032873 0 0 0
54 1 -12.367446584441568 -10.829753522535063 -2.046178586035081 0 0 0
1034 1 -13.392099938818072 -1.6856487619922564 -9.762419378517073 1 0 0
19 1 -8.335691549497668 -11.738930846851964 -0.36835347860192513 0 0 0
52 1 -9.624238727721133 -10.658954747922063 -1.8935534786983705 0 0 0
7 1 -5.38179117604925 -11.615470639086736 -0.22604140196945544 0 0 0
223 1 -12.152844127089178 -0.021338506102859256 -8.410769320495898 0 0 0
50 1 -6.725043545744573 -10.419302325650577 -1.8123327377582612 0 0 0
48 1 -3.822449553712886 -10.393743978526684 -1.6033103290597719 0 0 0
16 1 -3.6756994892087054 -13.212870684428689 -1.446870866361138 0 0 0
47 1 -2.1263260344336707 -11.715319630326759 -2.8881473322312274 0 0 0
11 1 -0.8734453573497234 -13.02892634302091 -1.3462313621618023 0 0 0
46 1 -0.9541291831667174 -10.081892898699593 -1.4668467392760913 0 0 0
288 1 -0.8682424572890248 -12.874959325213242 -14.359762678554088 0 0 1
42 1 -12.33610583219092 -7.970366171733918 -2.0465279002975603 0 0 0
9 1 -11.229442088351721 -9.305324670105025 -0.5122237439550901 0 0 0
40 1 -8.303478233044245 -8.98860199050256 -0.4566449602041871 0 0 0
32 1 -9.573180480059271 -7.8285024279984805 -2.043932492260897 0 0 0
100 1 -6.760849619864403 -7.719041002792449 -1.832640021005746 0 0 0
38 1 -5.4805645159007526 -8.919583026061256 -0.29023936803262274 0 0 0
98 1 -3.812496626238369 -7.408505178883642 -1.64568169863632 0 0 0
96 1 -2.7460749900325077 -8.736510733620396 -0.10657207066818764 0 0 0
35 1 -2.359856350403083 -8.874976650287755 -2.866329091811309 0 0 0
3 1 -1.1013020527603352 -7.39769094963532 -1.3148760407673628 0 0 0
155 1 -3.1317040182597164 -0.11834520484590172 -13.548876478161782 0 0 0
95 1 -12.521193912376049 -5.138920803940978 -2.315553511822829 0 0 0
94 1 -11.253530230661678 -6.3017132021917 -0.6798838948374524 0 0 0
24 1 -11.225643766223563 -3.53861142927191 -0.7782088866384402 0 0 0
92 1 -9.579974857503855 -4.9776076169906815 -2.1889568139681934 0 0 0
27 1 -8.405131468340073 -6.159330431175033 -0.4222515134910463 0 0 0
26 1 -6.816662294793891 -4.7259550368152965 -1.9746544337860232 0 0 0
72 1 -8.543648556781777 -3.2853961989679554 -0.6108373519612389 0 0 0
429 1 -5.518819207773129 -5.983535757070448 -0.47958025741119314 0 0 0
25 1 -3.872329633561101 -4.608252361462558 -1.7519879807004486 0 0 0
422 1 -2.667503409239343 -5.80550618520192 -0.14840377644679492 0 0 0
1313 1 -0.7721046378917222 -4.763734894158862 -1.4312928730540744 0 0 0
1109 1 -12.504763795179171 -2.359480625837959 -2.5054119350357897 1 0 0
75 1 -11.359536890670375 -0.7832546784080705 -1.1855749354468088 0 0 0
73 1 -9.834237502631176 -2.2144524611205014 -2.3245335255148447 0 0 0
69 1 -6.971435190269769 -2.1085712913509163 -2.077718033786928 0 0 0
660 1 -8.715227365645038 -0.5202507052143339 -0.8181215413143192 0 0 0
22 1 -5.593603053698672 -3.1450070318801764 -0.4389199189228634 0 0 0
536 1 -6.259412834083564 -13.582550880059392 -4.363559625338221 0 1 0
20 1 -9.456703916556378 -13.494738321351377 -1.6535965818337264 0 0 0
957 1 -0.010713549209727447 -10.943156893873159 -10.077032481272244 0 0 0
6 1 -2.5121174536862068 -11.562644966065628 -0.021451730247852296 0 0 0
444 1 -11.423652355192534 -11.857407358991026 2.3548576725917556 0 0 0
10 1 -12.725902380867266 -10.581026840774808 0.9443077344171265 0 0 0
896 1 -12.566280459096873 -13.478812445353919 1.0650770115268564 1 0 0
5 1 -9.83641747404203 -10.371755617013012 1.0485796111822836 0 0 0
438 1 -8.500451010920802 -11.548773951353269 2.591944007761935 0 0 0
656 1 -9.683299302018693 -13.38747826314661 1.12442639379465 0 1 0
8 1 -6.991060571239275 -10.253173490447084 1.169904521520186 0 0 0
17 1 -6.880251087844594 -13.073184932944033 1.188094733046313 0 0 0
12 1 -4.202756837998109 -13.045644536654937 1.426795259885342 0 0 0
436 1 -5.762463205923248 -11.41216083335896 2.714943047730962 0 0 0
437 1 -4.129502006056358 -10.129563138460025 1.25775465699558 0 0 0
434 1 -1.119013643939935 -12.948092875097878 1.383118259820879 0 0 0
435 1 -2.795335657125573 -11.459663183448404 2.854972944667402 0 0 0
432 1 -11.370652740190694 -8.78681364028224 2.359962163259052 0 0 0
928 1 -12.686394594289927 -7.7530083951840405 0.7515850102413602 1 0 0
31 1 -9.821199221591183 -7.551727614795447 0.8541708632396148 0 0 0
431 1 -8.422576573748797 -8.681516379457415 2.40443471497996 0 0 0
23 1 -6.979606575989079 -7.3486666967743135 1.0091359609302124 0 0 0
36 1 -4.328604821153304 -7.331921968857592 1.2706564141648027 0 0 0
430 1 -5.81207011241994 -8.574221024538108 2.6001635164925823 0 0 0
34 1 -1.4013338434265972 -10.053773605329466 1.4011889640907036 0 0 0
427 1 -1.4639160199038468 -7.223496763210266 1.3399740456510632 0 0 0
428 1 -3.0481604661642017 -8.49879766535869 2.715925974454464 0 0 0
252 1 -1.4264420840783636 -1.4721394144104831 13.879338323373766 0 0 0
426 1 -11.528950970025724 -6.02410744671653 2.119482406527773 0 0 0
33 1 -12.890948018419998 -4.944023066237131 0.5514836389195477 0 0 0
425 1 -10.158440701715042 -4.663708736473636 0.8165224757368588 0 0 0
391 1 -8.749892710601456 -5.8839464314208865 2.107701771419599 0 0 0
70 1 -7.173938454523182 -4.433693565266168 0.9675614023776014 0 0 0
423 1 -4.240516881781858 -4.316129116544229 1.1411355328238244 0 0 0
424 1 -5.818346875890087 -5.753945890244238 2.4011537653146497 0 0 0
1268 1 -0.8434772109432149 -4.74531390554009 1.8197463425070879 0 0 0
385 1 -2.9748072693961696 -5.58844946505668 2.6814279440911264 0 0 0
420 1 -11.693196050054654 -3.1709838635091128 2.076739540102622 0 0 0
695 1 -11.860298248612226 -0.4202814270047046 1.8291919147461257 0 0 0
74 1 -12.892239276356209 -2.0216924790996007 0.3678629057668825 0 0 0
449 1 -10.227013541721512 -1.8843741164165202 0.5900618250154377 0 0 0
419 1 -8.797103516946386 -3.059461953936564 2.1957108657569364 0 0 0
448 1 -7.316550073516437 -1.7365509196389457 0.8190884179604048 0 0 0
697 1 -8.990193355947712 -0.2592276203526591 1.875851221246517 0 0 0
418 1 -5.864177895532167 -3.024073209120962 2.312815778503719 0 0 0
376 1 -4.095846551064447 -1.8267934229672562 1.0839963085881053 0 0 0
249 1 -5.925791116680137 -0.42979253467253997 2.389850082396144 0 0 0
1258 1 -1.0384000841517231 -1.8351534891304535 1.5314125913278112 0 0 0
375 1 -2.672666925084995 -0.40372102672878185 2.724905097930204 0 0 0
368 1 -11.555147454017963 -11.5001255754743 5.171976088079212 0 0 0
1334 1 -12.945601575918854 -13.035199095906064 3.925658804684108 1 0 0
400 1 -10.052981502816424 -10.158296853121238 3.7773661278142043 0 0 0
409 1 -9.996420166575438 -12.846667082431242 3.90476164247454 0 0 0
408 1 -8.815047768298498 -11.227926405494868 5.545649242792468 0 0 0
407 1 -7.261800817979106 -12.862954666815531 4.089127545682199 0 0 0
405 1 -4.436148316266623 -12.706464759921099 4.288513694397533 0 0 0
406 1 -6.078312817559114 -11.206122668665406 5.566724213972655 0 0 0
403 1 -1.5507626543450233 -12.664186206566026 4.274597326719999 0 0 0
404 1 -3.0430757859952315 -11.031552369180247 5.571144242358805 0 0 0
402 1 -0.34027366007240545 -10.937768022530415 5.714823734870407 0 0 0
415 1 -12.95509111625379 -10.176124409487162 3.651869325485528 0 0 0
359 1 -11.763932945169673 -8.621404244863148 5.106211122578884 0 0 0
410 1 -13.1953563456854 -7.531594107429125 3.592127558799902 0 0 0
401 1 -10.1103327939724 -7.116945058456364 3.708514712954461 0 0 0
398 1 -7.257278459885433 -10.075150371211725 4.134830727793499 0 0 0
389 1 -7.53439386241838 -7.009025545506768 3.765342384914881 0 0 0
399 1 -8.961577526449265 -8.49567190129646 5.362576976598433 0 0 0
396 1 -4.477501259500933 -9.937106398430647 4.09414531543214 0 0 0
387 1 -4.641602809736234 -6.9477855825987165 4.051435171767537 0 0 0
397 1 -6.145030612602371 -8.295126545888914 5.406487241970336 0 0 0
395 1 -3.355160658124749 -8.213529936116565 5.461101640096448 0 0 0
394 1 -1.7140738572152205 -9.73592428919414 4.102996000734937 0 0 0
1233 1 -0.484388114128226 -8.084504432739145 5.360269430509465 0 0 0
393 1 -1.7562496702332595 -6.758279610539528 3.97488858195565 0 0 0
350 1 -11.881630295832991 -5.808868365779041 4.900284099708678 0 0 0
382 1 -10.3517360728761 -4.28993204918417 3.6624354836817403 0 0 0
392 1 -13.299946998299685 -4.610673767744393 3.362225782983373 0 0 0
390 1 -8.98764953045437 -5.618913576825573 5.097886040793483 0 0 0
380 1 -7.485677892066064 -4.194869874039663 3.7510077710513627 0 0 0
388 1 -6.198402726799662 -5.508613387031858 5.228501234164554 0 0 0
378 1 -4.725091299141251 -4.091265961854461 4.02832283254941 0 0 0
386 1 -3.3725223975750875 -5.295848902336418 5.352544625979952 0 0 0
1223 1 -1.0645071993129456 -4.612901097497243 4.718368559667894 0 0 0
383 1 -12.098419771832889 -3.054836049936588 4.772253458784782 0 0 0
251 1 -10.564091413277293 -1.6960126499442083 3.4201465805354587 0 0 0
742 1 -3.03869199130647 -0.35052813715123676 12.419502056683584 0 0 0
255 1 -5.661755863160417 -3.321103725169042 12.463703530315751 0 0 0
250 1 -7.805550848853004 -1.3821969347427956 3.6138643708316636 0 0 0
381 1 -9.205113662835021 -2.677392916162974 5.014765509093518 0 0 0
253 1 -2.685405757657426 -3.158148178564163 12.490168468820393 0 0 0
379 1 -6.314106410356213 -2.510455960922739 5.040897018373634 0 0 0
377 1 -4.345856918752135 -1.5925793263815269 3.939063737790768 0 0 0
384 1 -2.782335589375313 -3.1198351547681558 2.9102979247358327 0 0 0
237 1 -1.2939974701799493 -1.8433183839662206 4.431887902728153 0 0 0
335 1 -2.812146704621693 -3.06862304498668 5.764394108146018 0 0 0
327 1 -11.936753046968382 -11.102662877145914 8.147395578280037 0 0 0
373 1 -10.20457549732656 -12.630117053966867 6.8313641409858334 0 0 0
374 1 -13.134568762622136 -12.655851826126787 6.613357549296921 0 0 0
366 1 -7.478529905202745 -12.530666550856155 7.0655916261100025 0 0 0
325 1 -9.066047217126936 -11.010152125081323 8.362465546694168 0 0 0
364 1 -4.583235309746609 -12.419467641112197 7.082690563078067 0 0 0
365 1 -6.154190089602047 -11.043903583413192 8.322133990117173 0 0 0
363 1 -3.345010305914446 -10.782604151981587 8.414064430182968 0 0 0
362 1 -1.8289211260946914 -12.194337771323369 7.0576426888467765 0 0 0
361 1 -0.5486343255691217 -10.519883570601843 8.479029983354028 0 0 0
318 1 -12.1387975158732 -8.284658078128679 7.894984677412712 0 0 0
358 1 -10.547324192768755 -6.929928238359033 6.564418400557582 0 0 0
367 1 -10.392573132727165 -9.740072220299945 6.6483252819557315 0 0 0
369 1 -13.168347369359886 -9.829727902867939 6.503582877554756 0 0 0
357 1 -7.553473633600732 -9.621580518078266 6.893758766553752 0 0 0
316 1 -9.121570023860368 -8.12360405044383 8.116679789250671 0 0 0
348 1 -7.723780279039181 -6.884424522832808 6.551874959255606 0 0 0
355 1 -4.750968982628375 -9.413649253781598 6.996996347822716 0 0 0
356 1 -6.332721078843113 -7.849272168771973 8.20552876721581 0 0 0
354 1 -3.4675963621278285 -7.8576855908661845 8.250783101124298 0 0 0
353 1 -1.9213794234786281 -9.29892058554355 6.927981321999123 0 0 0
352 1 -0.7509163428803927 -7.669285907608751 8.411792053987323 0 0 0
341 1 -10.732382092400258 -4.109981299617836 6.2902993530133 0 0 0
309 1 -12.33769403276084 -5.3618099263140735 7.688174753126312 0 0 0
349 1 -9.223494503675457 -5.369007923689178 8.082994755919469 0 0 0
339 1 -7.813212178131502 -3.99606390487261 6.473857254809008 0 0 0
346 1 -4.844373067506552 -6.683025638290455 6.727561215166407 0 0 0
347 1 -6.46826753994481 -5.18445284560377 8.074707682964792 0 0 0
337 1 -5.083348313053895 -3.6832391792714496 6.571673227576724 0 0 0
345 1 -3.6847526341844112 -4.965200191908908 8.071630621846182 0 0 0
344 1 -2.021305270292924 -6.532995761571118 6.667144825449107 0 0 0
343 1 -1.405267770219874 -4.59006125434097 7.6995735787633635 0 0 0
247 1 -10.913124691852644 -1.266492617391581 6.031866220156239 0 0 0
342 1 -12.284216901901953 -2.594314750577219 7.440708608035404 0 0 0
246 1 -7.919775284125452 -1.2062265836603743 6.331437562151823 0 0 0
340 1 -9.391003320142953 -2.5420884015930607 7.720262918055184 0 0 0
338 1 -6.65405770052859 -2.3705246159947144 7.9363366714948285 0 0 0
245 1 -5.129008213540624 -1.0438447194234843 6.5423854337097715 0 0 0
336 1 -3.7131400088431885 -2.0705904096942493 8.014011051832025 0 0 0
334 1 -1.352414506953025 -1.7675030618236711 7.421899043420325 0 0 0
244 1 -2.8455605603781393 -0.33668092639324776 5.690370243001684 0 0 0
885 1 -12.218977099589482 -0.07100574960109363 4.584806162242312 0 0 0
332 1 -10.623902138427617 -12.313056466115015 9.746015596792354 0 0 0
292 1 -12.36797840232518 -10.76565770907714 10.785942116223165 0 0 0
331 1 -7.729602498779346 -12.201188037780797 9.899381050416654 0 0 0
291 1 -9.573325199535418 -10.649858621700904 11.025706763683615 0 0 0
700 1 -6.308110608578345 -13.369364311728871 11.35037105030841 0 1 0
323 1 -4.849864674045222 -11.999803463073734 9.929320960510548 0 0 0
324 1 -6.609603416807612 -10.606345130735058 11.295740985981208 0 0 0
322 1 -3.5732562111091823 -10.398267052066789 11.246911023422747 0 0 0
330 1 -3.5054821256690083 -13.2341596020029 11.63539644160641 0 0 0
321 1 -2.0352041477397567 -11.841281637853923 10.12190618851226 0 0 0
320 1 -0.8351999567646846 -10.281321271207611 11.414072171251124 0 0 0
370 1 -0.5425232546708791 -13.320580532702461 8.775800180731633 0 0 0
286 1 -10.78200220534248 -9.459684079381779 9.493957899355326 0 0 0
277 1 -12.46692370076932 -7.994126140027818 10.662298293961364 0 0 0
275 1 -9.577027506497942 -7.776845975352383 10.958433069215584 0 0 0
326 1 -7.805151110902164 -9.316757153304316 9.589375508681588 0 0 0
315 1 -6.632139287061735 -7.721810095236905 11.094673074910801 0 0 0
314 1 -5.004773110562837 -9.121674557506147 9.809169144966422 0 0 0
313 1 -3.7168315890544825 -7.4462900213352015 11.196493924140679 0 0 0
312 1 -2.13600102427238 -8.99062632416383 9.754788877690562 0 0 0
311 1 -0.8740878246922712 -7.344740817033039 11.168219602521823 0 0 0
317 1 -10.972073239446898 -6.566020589450738 9.358013901733841 0 0 0
300 1 -10.853138316001356 -3.788437754217602 9.110118384199403 0 0 0
310 1 -12.50383578295849 -4.9865544266209625 10.594801100922371 0 0 0
307 1 -7.985992468660892 -6.532340642900142 9.578293563619209 0 0 0
308 1 -9.576491803185117 -4.978742169311738 10.79256171266125 0 0 0
298 1 -8.095037343860948 -3.7216605126352285 9.260582928127064 0 0 0
306 1 -6.725680521610983 -4.8098301745198295 10.965225869303058 0 0 0
305 1 -5.052260762643309 -6.3842543417864315 9.535621905285684 0 0 0
304 1 -3.9778285259286843 -4.546632732688778 11.093247254404869 0 0 0
296 1 -5.216589287575902 -3.6064377684775586 9.387682271696686 0 0 0
303 1 -2.2890477342318487 -6.119852369336365 9.641468709043789 0 0 0
302 1 -1.0470056929205303 -4.4421349661463285 11.000186733366657 0 0 0
301 1 -12.716163150437628 -2.3567935007708343 10.366285635263498 0 0 0
243 1 -11.062085813937578 -1.1061469827374442 8.98217459269111 0 0 0
299 1 -9.69206434404406 -2.174090300077806 10.661190970933635 0 0 0
242 1 -8.215339397074278 -0.9125226221551017 9.234418590099569 0 0 0
297 1 -6.774742182358078 -2.01760278446368 10.735895639838038 0 0 0
241 1 -5.3890731323517205 -0.7985337487071931 9.309563730749794 0 0 0
295 1 -3.9229768801444056 -1.9458774164049597 10.80492448900766 0 0 0
704 1 -9.236923169257764 -13.536628779600186 11.14269595571816 0 1 0
294 1 -2.529157051063441 -3.2873176333639424 9.671170282961132 0 0 0
794 1 -2.4477619800994503 -0.5252574873267992 9.284769514284722 0 0 0
293 1 -1.2138009816232778 -1.7326300976586175 10.926415478256772 0 0 0
150 1 -10.905772204096627 -12.167694234478676 12.45466941491194 0 0 -1
199 1 -12.517477532773494 -10.650081715172496 13.69131565470268 0 0 -1
279 1 -1.0317775265348512 -9.946477204852066 14.30965752296516 0 0 0
554 1 -9.470975257376303 -13.416904545965453 14.017462792852836 0 1 -1
284 1 -8.068376133349044 -12.01804871245711 12.657601257869697 0 0 0
182 1 -9.741414232653485 -10.353949542551039 13.816449959562469 0 0 -1
183 1 -6.6945140812191815 -10.260511008286665 14.15725935058175 0 0 -1
679 1 -0.008634822344466997 -0.1626397873529868 12.457108742928366 0 0 0
1294 1 -13.337845005532042 -1.6729514758485706 3.28612339467254 1 0 0
290 1 -6.595865802649731 -13.20731512252992 14.301927871393637 0 0 0
282 1 -5.195561947189541 -11.801230911543792 12.798783988139778 0 0 0
601 1 -12.370966234526692 -13.552324926677754 13.810535737929118 0 1 -1
329 1 -0.6807814046544607 -13.009713940400548 11.647230034745089 0 0 0
280 1 -2.342694543075263 -11.586640209443287 12.982818398971009 0 0 0
285 1 -11.033770284654 -9.199140600767445 12.26704276347144 0 0 0
1138 1 -12.563794897689588 -7.731851074447325 13.448343718759837 1 0 0
276 1 -9.791727505322786 -7.513161573844538 13.60950048579372 0 0 0
283 1 -8.134957501954482 -9.113851393006549 12.449554938053758 0 0 0
274 1 -6.9586764430402805 -7.403273123389015 13.927995211288042 0 0 0
281 1 -3.940984369061212 -10.075298137689272 14.162001852910425 0 0 0
272 1 -4.15519414720775 -7.405099354884665 13.901107112450127 0 0 0
273 1 -5.344776914982255 -8.977234520357328 12.508075032640647 0 0 0
270 1 -1.2621240518717283 -7.203506936888178 14.211341253516114 0 0 0