LAMMPS data file via write_data, version 29 Sep 2021, timestep = 0

1868 atoms
3 atom types

-14.333832159808004 14.333832159808004 xlo xhi
-13.637429218049501 13.637429218049501 ylo yhi
-14.147714848719014 14.147714848719014 zlo zhi

Masses

1 55.847
2 1.008
3 1.008

Atoms # atomic

132 1 -12.881352001665995 -11.082878766641949 -13.687323985043689 0 0 0
470 1 -7.3690434549323465 -0.07084636570469449 -2.7779221858961414 0 0 0
125 1 -10.597829832597695 -12.212049326304873 -12.653099627955182 0 0 0
124 1 -8.868635697212827 -10.406169186183057 -11.759750394387936 0 0 0
73 1 -0.9438000407973881 -1.5884246526776522 -1.8053408032038458 0 0 0
126 1 -7.9300843758933635 -12.83317302342666 -12.121823481854877 0 0 0
79 1 -6.741351868332151 -10.685762257500864 -13.284421920092726 0 0 0
35 1 -5.456872356950653 -13.166578481388013 -13.368894772171071 0 0 0
37 1 -4.149781807154204 -11.548318166235859 -12.311497149644007 0 0 0
3 1 -1.4780504864691828 -12.200583870025731 -11.806574842942572 0 0 0
4 1 -0.45955245490071484 -10.08289654947539 -12.729710165587331 0 0 0
166 1 -11.118386748546204 -1.5552813393017928 -2.2387463600446296 0 0 0
406 1 -12.385505598929047 -7.6258904823661116 -12.630833526996941 0 0 1
466 1 -11.094725812713925 -9.781560919619047 -13.024584576212698 0 0 1
130 1 -9.735796087616453 -8.179807010393606 -11.673881724971789 0 0 0
83 1 -8.258626519943789 -8.61879521329571 -13.475987248066836 0 0 0
224 1 -6.136251810337297 -7.05641458552641 -12.099607064031769 0 0 0
84 1 -4.939213391406112 -9.201324315784252 -12.525728892476115 0 0 0
462 1 -3.9245232007560293 -7.1983965782694845 -13.668517607023029 0 0 1
42 1 -2.721438736299275 -9.899509488894447 -13.7869861228195 0 0 0
40 1 -1.5601388360564314 -7.847569013672755 -12.753674346012472 0 0 0
174 1 -13.286497142309795 -5.1250533743782665 -12.567652078328909 0 0 0
178 1 -11.711716327096982 -3.6616837841784253 -11.440399293812993 0 0 0
128 1 -8.842611234942158 -6.147831021828994 -13.069194076703136 0 0 0
129 1 -9.827032331101027 -3.8579369396074004 -12.896002790931801 0 0 0
180 1 -10.926671313000028 -5.984106214816528 -11.589981337428299 0 0 0
135 1 -7.071771655218789 -4.647064472549038 -12.194550034886056 0 0 0
393 1 -5.113486725404604 -4.636095500876717 -13.885498010411158 0 0 1
216 1 -2.438259799184493 -5.5998074334912165 -12.665792550024568 0 0 0
218 1 -0.7164830730667333 -4.068215414028124 -11.564988730440444 0 0 0
215 1 -0.382816338117836 -5.627299155680568 -13.877350732884768 0 0 0
358 1 -1.3253434581986117 -3.4535413698571755 -13.740758643429267 0 0 1
198 1 -13.358799914210664 -0.9283241444916008 -13.711668113737097 0 0 0
200 1 -12.767127944764917 -1.4778395014907222 -11.492272858475935 0 0 0
172 1 -12.489930773760346 -3.12059611935811 -13.823002052115221 0 0 0
234 1 -10.659845942964054 -1.5863565836278557 -12.702508369269893 0 0 0
203 1 -0.38615003398810543 -13.503758249308692 -6.9313775568565745 0 0 0
232 1 -8.109264676947262 -2.395583972921786 -11.995784662376273 0 0 0
231 1 -6.131140322107004 -2.2925312722502653 -13.525235868271514 0 0 0
210 1 -0.2659552000186842 -6.42665016644987 -0.8186159460363456 0 0 0
368 1 -3.408009964965551 -3.3135506829656176 -12.505709532583705 0 0 1
226 1 -4.180117954841448 -0.9402792301100007 -12.550952857438881 0 0 0
217 1 -1.64544076502216 -1.8580378668422242 -11.742477793123296 0 0 0
961 1 -12.660456768782518 -11.941599954141548 -11.325813249842465 1 0 0
170 1 -12.052790628027708 -12.54085295471413 -9.062080175827079 0 0 0
176 1 -12.978268209899007 -10.257451966115088 -9.145173150532072 0 0 0
133 1 -9.891766019390019 -12.629762080922898 -10.413905567155295 0 0 0
131 1 -10.89239358110921 -10.303070971551987 -10.400178428164788 0 0 0
87 1 -8.234518671086335 -11.277627915809886 -9.579800264319456 0 0 0
81 1 -6.21381045651839 -11.324081751999103 -10.972367422055608 0 0 0
75 1 -3.1838038636573796 -2.6350601003512626 -1.2899920972134762 0 0 0
88 1 -5.588854083804421 -12.06934020926641 -8.707900101732246 0 0 0
44 1 -3.601725813032475 -12.151934856275597 -10.07537123940994 0 0 0
10 1 -0.9283340611272131 -12.863212658960363 -9.25578800924922 0 0 0
9 1 -1.8792265940408992 -10.741537684462205 -9.186250051975048 0 0 0
959 1 -13.551467312380419 -9.604382749433107 -11.428454634472775 1 0 0
183 1 -14.046508538237486 -8.064720824609882 -9.195481381209254 0 0 0
175 1 -11.855704163024637 -8.146445922391408 -10.402301681142129 0 0 0
139 1 -9.217937679838922 -8.962015215517914 -9.38199408543576 0 0 0
85 1 -7.071004705833659 -8.987042849620842 -11.04355270430715 0 0 0
94 1 -6.546991376480157 -9.784308726721296 -8.634018199359504 0 0 0
137 1 -8.191674862459854 -6.643343689735534 -10.790222649208719 0 0 0
41 1 -3.4936489610930828 -7.662056423572709 -11.242856879570832 0 0 0
92 1 -5.559865464039035 -7.552989169289124 -9.805943930316346 0 0 0
86 1 -4.5799608088892665 -9.679875247489166 -10.082734602003555 0 0 0
43 1 -2.4948080792216967 -9.813650909957875 -11.353026559603935 0 0 0
50 1 -2.749607184870003 -8.497869874039498 -9.011323349809885 0 0 0
7 1 -0.6928474229953405 -8.411762367562103 -10.46357697626941 0 0 0
181 1 -13.055800068533834 -5.919077606251712 -10.293999834175207 0 0 0
179 1 -13.947277694916671 -3.5700439133228006 -10.1743867798377 0 0 0
138 1 -10.297925777958113 -6.611206114378489 -9.338934456396153 0 0 0
186 1 -11.292521703607921 -4.3892827486630885 -9.217539912650272 0 0 0
136 1 -9.200449801474676 -4.449678994584463 -10.620104119261988 0 0 0
91 1 -6.530186068752339 -5.277960977314356 -9.851968879219088 0 0 0
90 1 -4.479750044023701 -5.487879322480326 -11.367906308984553 0 0 0
49 1 -3.7491640926749383 -6.031104450334901 -9.043523156498493 0 0 0
100 1 -4.834453022955911 -3.725129369567325 -8.84862760709709 0 0 0
219 1 -2.7562087729632854 -4.0762641420864725 -10.277859118906585 0 0 0
48 1 -1.8056870153129871 -6.270504632832702 -10.375839650975232 0 0 0
990 1 -0.19364222595613612 -5.182345190892642 -2.958810153338783 0 0 0
185 1 -12.176125920303353 -2.1318314238761076 -9.20401248241736 0 0 0
184 1 -10.03164511857447 -2.140597920752848 -10.548915166471884 0 0 0
487 1 -10.40046930005681 -0.6558236715918238 -8.310375183019975 0 0 0
233 1 -6.2933406465622355 -0.8759816260820656 -11.085750871175629 0 0 0
623 1 -8.39723870937646 -0.6946032536654272 -9.716641162040816 0 0 0
145 1 -7.412165458280084 -2.9584122715611034 -9.797099719564624 0 0 0
230 1 -5.835289424587652 -1.3092433526674014 -8.7766128485079 0 0 0
228 1 -5.2778387360819 -3.132141906629478 -11.187609024648623 0 0 0
229 1 -3.6923743948865333 -1.6931697192566393 -10.182223719279468 0 0 0
1 1 -6.482292173998604 -0.8644548245288401 -0.12620177452447479 0 0 0
220 1 -1.0083297858389724 -2.3752299230309823 -9.455735821029556 0 0 0
1088 1 -14.158315064996115 -12.411615543884947 -7.664537264448726 1 0 0
134 1 -12.367335871811116 -10.738094957263263 -6.779008793769991 0 0 0
177 1 -11.470430852451136 -13.120992797537783 -6.806517749551398 0 0 0
89 1 -9.509407868807191 -13.470172223801827 -8.125548897358088 0 0 0
141 1 -10.316828136602386 -11.056145668968794 -8.158300586812075 0 0 0
97 1 -9.82890189530475 -11.685611877782268 -5.7350355487908065 0 0 0
96 1 -7.67008602074458 -11.941671990901645 -7.1855848273715885 0 0 0
53 1 -5.855249940544891 -10.303453342501863 -6.317142632676245 0 0 0
54 1 -4.925794689290125 -12.654392144817878 -6.364954523237977 0 0 0
45 1 -3.916937439989102 -10.453701320695952 -7.724920233631709 0 0 0
11 1 -2.8882084229219025 -12.918562768535406 -7.858291789832181 0 0 0
467 1 -14.18944188664639 -13.43703874324337 -12.730749704878093 0 0 1
15 1 -1.2323731725509273 -11.3147986686551 -6.831606390028188 0 0 0
1091 1 -13.207907062572525 -8.582532132271677 -6.552424841809421 1 0 0
182 1 -11.276589812584636 -8.663724048470453 -7.990337410931899 0 0 0
149 1 -9.511609977992562 -7.279471809257001 -7.096080138265304 0 0 0
93 1 -7.5302867028396445 -7.575813517981395 -8.526447096057531 0 0 0
95 1 -8.593564440262256 -9.593532564864795 -7.119728300315246 0 0 0
104 1 -6.897367823369565 -8.107652969351376 -6.207211474908986 0 0 0
51 1 -4.918832205847146 -8.203183731900037 -7.466497263839931 0 0 0
971 1 -14.184998748369024 -6.372173647808452 -6.396590631412135 1 0 0
14 1 -2.1501630643027347 -8.990883844401743 -6.720844994241722 0 0 0
12 1 -1.0994572765978177 -6.940574731955959 -8.0518733891512 0 0 0
188 1 -12.333275100680996 -6.486567025350736 -8.016896487054613 0 0 0
187 1 -13.276726462490481 -4.168727479356489 -7.709088545255282 0 0 0
74 1 -4.800222134067969 -0.8229095048099548 -1.9062765520329847 0 0 0
148 1 -10.585948035277395 -5.005079802536752 -6.9465235421273235 0 0 0
158 1 -8.85153109775744 -3.5698225712174008 -6.072838493411034 0 0 0
147 1 -8.433814919368581 -5.2714731016310985 -8.423009896565535 0 0 0
103 1 -7.834370700332548 -5.76259597663043 -6.084884284383479 0 0 0
101 1 -6.825274196112218 -3.5917961537956327 -7.342538591419378 0 0 0
102 1 -5.883796544074469 -5.8524739600443185 -7.584193723185213 0 0 0
58 1 -3.077913093493045 -6.755597789567169 -6.73404905483151 0 0 0
113 1 -4.109315501254198 -4.474757934483582 -6.558057599075564 0 0 0
56 1 -2.0274811022954893 -4.630238164120419 -7.836873803342784 0 0 0
488 1 -12.335817717768963 -0.3342188822808687 -6.992788212189883 0 0 0
202 1 -14.067017739859011 -1.9446568394523052 -7.820791291042095 0 0 0
190 1 -11.421012510070579 -2.6073074664159694 -6.937337087555095 0 0 0
146 1 -9.391077465052705 -3.028515830709173 -8.305891727682742 0 0 0
157 1 -9.695533389458106 -1.088736759174603 -5.911542132910613 0 0 0
156 1 -7.72753232668343 -1.1872639241295975 -7.329163631639027 0 0 0
111 1 -4.975817080287088 -2.143013250395123 -6.330933211593921 0 0 0
221 1 -2.9911299448651576 -2.3148615220737305 -7.8645668820340475 0 0 0
212 1 -0.4979114667662117 -3.1399027769147914 -7.078068120341296 0 0 0
222 1 -1.2026936853806003 -0.8073331493972571 -6.949668299822515 0 0 0
144 1 -13.40882257361987 -13.197903065292019 -5.252073676212818 0 0 0
142 1 -11.741740293941556 -11.610434166312459 -4.44881291646438 0 0 0
118 1 -11.153694334423031 -8.516936630081712 -0.22927097722363143 0 0 0
108 1 -9.05022746243343 -12.357542721081817 -3.517418417195099 0 0 0
55 1 -6.933494903216068 -12.28098969909314 -4.779882981473719 0 0 0
106 1 -7.957477245526646 -10.113240131968977 -4.935906945113494 0 0 0
25 1 -5.245124355758943 -10.92884881364322 -3.936096407208419 0 0 0
52 1 -3.2614819654898053 -11.18762262212548 -5.389528276743848 0 0 0
18 1 -4.289010107605941 -13.194514069342528 -4.051768062151158 0 0 0
17 1 -2.3804662920008575 -13.427442041583584 -5.463583436813643 0 0 0
16 1 -2.5785222519862216 -11.589107514247974 -3.1263587569395774 0 0 0
204 1 -0.6036742384871712 -11.990179304380485 -4.380079245649977 0 0 0
150 1 -11.717067200191051 -7.053421646035249 -5.418539809417897 0 0 0
1095 1 -12.758859853494087 -9.445436821436388 -4.338020300444127 1 0 0
189 1 -13.752178723578504 -7.156294124557956 -4.039015318528826 0 0 0
151 1 -10.63296050875688 -9.371917054122164 -5.6955931696043915 0 0 0
107 1 -9.946387573331098 -10.123084568059733 -3.378288087388629 0 0 0
140 1 -9.0205339935283 -7.891287865985513 -4.796386921827443 0 0 0
61 1 -10.894709802672125 -7.946607268415031 -3.215059669508678 0 0 0
62 1 -6.188797738719288 -8.778447067835955 -3.805299352594867 0 0 0
60 1 -4.1614953053857935 -8.980091785805147 -5.3578381365704395 0 0 0
70 1 -4.670394146275994 -6.9516241347524526 -3.099043321464883 0 0 0
20 1 -0.35662703265088425 -7.634936581022095 -5.717136189460083 0 0 0
28 1 -0.3041723627938513 -7.709041296456434 -3.2570262270543324 0 0 0
21 1 -2.6889883182060057 -7.385034985878468 -4.452551918480321 0 0 0
22 1 -1.2804934659275222 -9.526523699311817 -4.349037887262249 0 0 0
192 1 -12.545230667372108 -4.785819542654471 -5.645561801566721 0 0 0
161 1 -12.212466048950306 -5.374600702930309 -3.3634176099225304 0 0 0
160 1 -9.974609117511557 -5.64900790375852 -4.503347054163546 0 0 0
115 1 -7.186485469129767 -6.678934932159011 -3.941820985317925 0 0 0
114 1 -8.156110663507032 -4.138627245287767 -3.9782144696001787 0 0 0
69 1 -6.1689275811299105 -4.232190441881956 -5.164866591558866 0 0 0
59 1 -5.25140455098815 -6.552190156680969 -5.404327748722103 0 0 0
68 1 -3.7359887464628088 -5.011679947398914 -4.199320707073067 0 0 0
19 1 -1.3066408710056407 -5.372038555559941 -5.417572810049945 0 0 0
66 1 -1.9480779163144728 -3.51065158283307 -3.207946831273633 0 0 0
120 1 -6.932835938180136 -2.575522012641729 -2.594284081414214 0 0 0
191 1 -13.33197109813 -2.5947703833382914 -5.418088534308479 0 0 0
195 1 -13.539392615372035 -0.8388243825565205 -3.4545625442497165 0 0 0
194 1 -11.59314008558408 -1.080530992588578 -4.705238231138674 0 0 0
953 1 -13.158534490535569 -3.1716557901560414 -2.8278912936775544 1 0 0
159 1 -10.868615050264548 -3.419083585237864 -4.380195888561172 0 0 0
165 1 -9.08952424730019 -1.7886037592626387 -3.776788741391533 0 0 0
112 1 -7.111791532590883 -1.9195345126277346 -5.020160595013216 0 0 0
223 1 -3.402406337510424 -0.569022358898911 -5.621419125006639 0 0 0
483 1 -5.390253125850345 -0.48297793504963416 -4.178852710758868 0 0 0
29 1 -4.562102923431443 -2.791509037688595 -3.5873203368504303 0 0 0
67 1 -2.6229458085537196 -1.0723821933242608 -3.3315534512532246 0 0 0
57 1 -2.3424492809976023 -3.0408117212166452 -5.544583055841086 0 0 0
213 1 -0.6768916318221532 -1.3873041143123128 -4.778625355970261 0 0 0
76 1 -5.4959655613318805 -3.205625241885741 -0.7442258594476314 0 0 0
154 1 -13.966459651785504 -11.54076277078488 -2.752998240098041 0 0 0
109 1 -11.307897815996988 -12.389462128703256 -1.7772010788250583 0 0 0
258 1 -9.67603966798902 -10.35749447135726 -0.7518042200652957 0 0 0
153 1 -8.611616866425779 -12.58058038816193 -1.0524753080533191 0 0 0
64 1 -6.457866245649993 -13.091732218661548 -2.560957479138809 0 0 0
63 1 -7.5376324778061425 -10.797850756825689 -2.275687958644136 0 0 0
252 1 -4.786269067219196 -11.698174017940193 -1.6149680748600428 0 0 0
26 1 -2.2591977384120963 -12.046343696707735 -0.8622424723023343 0 0 0
207 1 -0.9446544011886964 -10.139100438354825 -1.696123257432415 0 0 0
163 1 -14.158221196307453 -9.669291284670475 -0.8973102778246975 0 0 0
152 1 -12.018144041177452 -9.97505570347198 -2.142769659681477 0 0 0
954 1 -12.89462799836717 -7.686831516776684 -1.765997723816783 1 0 0
13 1 -0.1690778033299356 -9.250679154628198 -8.320283587888017 0 0 0
105 1 -8.28947136890828 -8.44105184246399 -2.3898068301358535 0 0 0
117 1 -7.453080857766453 -8.964084815746588 -0.11288777912136183 0 0 0
71 1 -6.602942266892466 -7.0181018134987285 -1.5018741133020086 0 0 0
24 1 -3.2036287723727455 -9.175299840258443 -2.762745017603132 0 0 0
31 1 -4.010292025315502 -7.463939077614051 -1.0296349684995878 0 0 0
23 1 -5.495501791641004 -9.289252591466585 -1.6588384951686503 0 0 0
32 1 -3.416045549727208 -9.912126910022327 -0.4403780305348626 0 0 0
1002 1 -1.7977968078219604 -8.188647346167564 -0.7275215253127563 0 0 0
169 1 -13.53446852526858 -5.488362173007694 -1.4137583652918924 0 0 0
196 1 -11.706477657487806 -3.8553312947027614 -1.1282156683058382 0 0 0
116 1 -9.03621712892633 -6.965858742175346 -0.167718193746337 0 0 0
193 1 -10.92606633818033 -6.135094450742873 -1.6894633418396126 0 0 0
121 1 -9.47819063118542 -3.7178034304902567 -2.0551384176014196 0 0 0
167 1 -8.742729823677383 -6.075409545660389 -2.3530594450960205 0 0 0
162 1 -5.950651260405609 -4.896691048876727 -2.8754106093852396 0 0 0
122 1 -7.26537903930574 -4.964958517003273 -0.5928483141754946 0 0 0
77 1 -3.885587107882202 -4.783548833633068 -1.601965516471326 0 0 0
34 1 -1.1697732560950787 -4.1068635912902565 -0.7122499844069754 0 0 0
30 1 -2.2185880911702967 -6.352049100693388 -2.351466722243389 0 0 0
584 1 -1.7550247431288852 -0.16148088017453333 -9.232091993599498 0 0 0
2 1 -12.794414269320939 -1.524072504848407 -0.5162761414401675 0 0 0
484 1 -8.866324640735042 -1.2915022927024644 -1.5471228662059975 0 0 0
983 1 -14.289376918968927 -3.380294431452377 -0.2708930383100743 1 0 0
211 1 -0.07293288106841445 -4.752096272149879 -9.34330531189276 0 0 0
617 1 -7.044310006562848 -0.1987402259992681 -13.189695034848407 0 0 0
78 1 -7.18224388096583 -13.4293814067317 -9.574967549491678 0 0 0
404 1 -9.05008487656093 -10.968284551169365 -14.108071510390092 0 0 1
902 1 -13.046616236320812 -13.585989881081577 -0.17680538071698848 0 1 0
605 1 -3.838132457026452 -0.010771467908480048 -7.809988248892528 0 0 0
405 1 -6.894761154688405 -6.361095578521344 -14.091820769588692 0 0 1
398 1 -11.48173808319073 -5.385709221262388 -14.106038381088114 0 0 1
864 1 -12.350059335665339 -12.369982079223728 2.1037586485675046 0 1 0
164 1 -12.13859050231715 -10.718871133711616 0.25033842767536996 0 0 0
367 1 -3.8877110771929537 -2.8626024820605185 13.577458788025835 0 0 0
257 1 -10.54168506923295 -10.649602451760522 1.785554528590458 0 0 0
249 1 -10.399788859610789 -12.697017737749976 0.3472995594104944 0 0 0
119 1 -8.128555791403254 -11.112475495342817 0.9577026472180297 0 0 0
251 1 -6.29608537309873 -11.668916194876148 2.539189473703848 0 0 0
862 1 -7.957646331400806 -13.47463749307693 2.52804211636993 0 1 0
65 1 -6.803684378531153 -13.09209091704989 0.2216755328964748 0 0 0
856 1 -5.7267685284394965 -10.83917861571496 0.47755327812445536 0 1 0
253 1 -3.5488404191668135 -12.054775513910212 1.390499317441778 0 0 0
459 1 -0.12358525440199486 -11.785460965524013 11.197982909836648 0 0 0
1172 1 -0.8208043905360523 -12.705050430517591 0.649981779130762 0 0 0
254 1 -1.6872438494547577 -10.351746511156783 1.0460613884656311 0 0 0
242 1 -13.177150228770474 -10.152929340055042 2.669240925930433 0 0 0
255 1 -13.279623173215933 -8.120156193047492 0.853130713726614 0 0 0
256 1 -11.445485092317888 -8.532838061262165 2.361161574704317 0 0 0
72 1 -9.019389259864786 -9.021401211389712 1.6437026620740625 0 0 0
291 1 -7.135426195681965 -7.0232267254807565 1.3309399367269634 0 0 0
282 1 -6.7837983280710485 -9.30499132569609 2.768018651532655 0 0 0
284 1 -5.330937661032344 -8.447239216566357 0.623859454237552 0 0 0
275 1 -4.266762285483011 -9.960704016689597 2.238787650980184 0 0 0
283 1 -5.215701900648353 -7.601469620995122 2.844874783998817 0 0 0
285 1 -2.6387307787024366 -8.203744735973022 1.612160195830505 0 0 0
345 1 -8.079860664958654 -2.668724734437413 0.06601825766678893 0 0 0
110 1 -11.761104942718305 -6.116066188932343 0.4170821753804219 0 0 0
955 1 -12.452070523025577 -3.904610688891573 1.1611720094384737 1 0 0
197 1 -14.195537416332261 -5.449401949073195 1.3885321501576033 0 0 0
289 1 -9.572426952707666 -6.614831133570954 2.034732465784691 0 0 0
168 1 -9.68895033263873 -4.638962514689895 0.22740112233578103 0 0 0
288 1 -10.623042434142594 -4.460275959681482 2.6880113068016716 0 0 0
290 1 -7.959374599086622 -4.855079932824536 1.8969707456878506 0 0 0
338 1 -3.5502994294215533 -5.965017132035678 2.3783179430072625 0 0 0
347 1 -5.288701159565196 -5.668050942801292 0.7680679489849158 0 0 0
348 1 -3.7584663715732898 -3.6922287104347973 0.7846939728002891 0 0 0
240 1 -0.8566339832756675 -6.4715110083186325 1.5755852562265353 0 0 0
339 1 -1.7050285624164854 -4.228981360531558 2.0486130169228236 0 0 0
276 1 -2.605663691261972 -5.920154221602487 0.12011292392164563 0 0 0
293 1 -13.288295172270047 -1.7546370586648177 1.8377584606532142 0 0 0
295 1 -10.733741066901548 -2.3721167616610135 0.5123605616189177 0 0 0
343 1 -8.907971205805655 -2.7052405001885393 2.3923432158432814 0 0 0
241 1 -9.043281239754439 -0.5553090512116441 0.8992831365643816 0 0 0
292 1 -6.237795041278444 -3.1270242747892336 1.6003912369794708 0 0 0
344 1 -7.0883266999574985 -0.9093540503190756 2.1207112437116944 0 0 0
346 1 -4.413698495742754 -1.4032520240121666 1.1358296357225601 0 0 0
33 1 -1.978653377960443 -1.9486985675979174 0.5083242657371247 0 0 0
1868 1 -0.37431246128801554 -0.21017044317728661 0.353630440360595 0 0 0
411 1 -2.688386501062835 -2.0153618083840055 2.8724926376116837 0 0 0
410 1 -0.9702841937183511 -0.30625510501612574 2.6632887676577983 0 0 0
225 1 -2.2163668343897935 -1.1882768163055317 14.011291695007264 0 0 -1
244 1 -13.166135365224713 -12.46623637155981 4.41654635412956 0 0 0
248 1 -11.325791881712947 -10.79098846839238 4.279944689256384 0 0 0
245 1 -10.410572547190624 -12.846526583970896 3.442795671347879 0 0 0
250 1 -8.541236624320618 -11.111694173021831 3.425325200951148 0 0 0
271 1 -9.496408271711694 -11.314141128786876 5.638763104281113 0 0 0
823 1 -8.389624678789907 -13.441107649428849 5.000162470458209 0 1 0
273 1 -6.672710833612102 -11.774264090591565 4.846141818076957 0 0 0
246 1 -4.219949841547969 -12.04758278156111 3.8055513262055367 0 0 0
235 1 -1.5285644157113492 -12.646630742488261 2.9403357664801586 0 0 0
1169 1 -0.4949538580712751 -10.934549445815296 4.968447536458298 0 0 0
237 1 -2.198813130565414 -12.70567256276644 5.182887089480518 0 0 0
267 1 -2.2227631918078696 -10.316031943394835 3.4799606461777923 0 0 0
247 1 -13.955088249793448 -10.221245118375752 4.994070203317934 0 0 0
278 1 -12.233563678952367 -8.467096293356263 4.701290946381475 0 0 0
1367 1 -14.068031790809709 -7.945005215264651 3.1171388751212117 1 0 0
280 1 -9.54940878055331 -8.998527568605828 3.9391363262469046 0 0 0
281 1 -7.888149546635656 -7.250930386346192 3.6192268036979716 0 0 0
272 1 -7.840929977347809 -9.638194842161484 5.401717644380495 0 0 0
327 1 -6.152485595749585 -7.767731831765307 5.1488685474366225 0 0 0
274 1 -5.133333028829641 -9.964002250310447 4.595636081515854 0 0 0
329 1 -3.2619945108857547 -8.236876023638677 4.2042662222656 0 0 0
239 1 -0.7011843359066336 -8.622325590767687 3.303871077524173 0 0 0
287 1 -12.351538780130355 -6.245174197404812 2.8446790585273884 0 0 0
294 1 -13.267142675577968 -3.763564907505966 3.620641947056418 0 0 0
277 1 -13.121314587070797 -6.2363925239052636 5.309812595614174 0 0 0
332 1 -11.434992249752947 -4.530649066691218 5.029215142251845 0 0 0
279 1 -10.557468789720948 -6.663094972077812 4.357408791386904 0 0 0
334 1 -8.76804990115479 -4.878632384447645 4.207609707890343 0 0 0
336 1 -6.199797301578229 -5.419345151997925 3.3625169067834886 0 0 0
326 1 -6.926808213546314 -5.495654532404075 5.792223798169308 0 0 0
337 1 -4.4640028758378225 -3.7631431682166188 3.192805897947496 0 0 0
328 1 -4.352392891053238 -6.118377390204813 4.89553279303234 0 0 0
419 1 -5.176880784438907 -3.8358415973927915 5.490327069302323 0 0 0
330 1 -1.6909179913628005 -6.380267645205867 3.953595149575003 0 0 0
417 1 -2.5541707411753674 -4.347195823640911 4.582783894564832 0 0 0
331 1 -12.347859798668129 -2.323822369140153 5.542509005392427 0 0 0
341 1 -11.309980358870654 -2.169624973207604 3.154035462319479 0 0 0
1220 1 -14.186381353847318 -1.5716456508992938 4.094951001316533 1 0 0
342 1 -9.778749003504108 -0.29536439210294674 3.095131225741012 0 0 0
333 1 -9.828424669504823 -2.752309707062116 4.79617390453444 0 0 0
414 1 -10.666247734378505 -0.5934106765087925 5.3069417960870044 0 0 0
335 1 -7.089355535563578 -3.1117822474090424 4.059618269701916 0 0 0
413 1 -8.03541047712985 -0.9845673633420802 4.597142986681897 0 0 0
412 1 -5.26192016638168 -1.5487516466455151 3.483896099836647 0 0 0
418 1 -3.3653202468168146 -2.043328644976441 5.086126683042364 0 0 0
416 1 -0.7431013366198318 -2.6501807902614427 4.393157871697637 0 0 0
371 1 -1.7132451509186026 -0.3446791487164713 4.90974621034899 0 0 0
269 1 -12.21149895793598 -10.867294050768706 6.612673699442107 0 0 0
262 1 -13.819221073133079 -12.52469576055223 6.760869933989655 0 0 0
260 1 -12.081467948532193 -12.99309918916517 8.151592382507735 0 0 0
264 1 -11.084327289543662 -13.005423070633533 5.9139399528104 0 0 0
263 1 -10.311397807922935 -11.312239449202906 8.049218918368132 0 0 0
265 1 -7.479611442314387 -11.73708280512315 7.15733615940289 0 0 0
320 1 -3.1945238711195287 -10.50773092674068 5.819802125018954 0 0 0
266 1 -4.792681708653847 -12.180705001778577 6.23204389581605 0 0 0
309 1 -3.9700718008845026 -10.529569478558141 8.258274134076588 0 0 0
310 1 -2.8252817636608754 -12.904485079788953 7.623354019274069 0 0 0
311 1 -1.2023578362860867 -11.10658952963998 7.405841703737339 0 0 0
796 1 -0.27609035227049716 -13.312889956735079 6.671739184332248 0 1 0
268 1 -13.041647244221037 -8.540464213090301 7.266760599181209 0 0 0
270 1 -10.430503302863855 -9.079986665947988 6.3118252275527045 0 0 0
315 1 -9.409926863239601 -7.337065575028748 8.541159493469722 0 0 0
325 1 -8.702441297643361 -7.266457345478658 6.0351643103482555 0 0 0
316 1 -8.599567486876909 -9.510017720049435 7.863412694287886 0 0 0
317 1 -6.715729884897668 -7.796606405382062 7.633706836744567 0 0 0
318 1 -5.831084360659556 -10.090964013708572 6.988401046674936 0 0 0
319 1 -3.9983760230548455 -8.322731565580398 6.725101894878891 0 0 0
321 1 -1.2930413422656812 -8.811944623287532 5.694578704996031 0 0 0
437 1 -2.0705616376892113 -8.834672384255608 8.085948368311874 0 0 0
436 1 -0.44319823904761435 -7.087085099776267 7.870752690634122 0 0 0
1270 1 -13.883731344013398 -6.211113590612584 7.762481268963731 1 0 0
322 1 -12.212599969971858 -4.464071107634043 7.471691529282532 0 0 0
286 1 -14.063707693907153 -4.054775704016102 5.960137164753506 0 0 0
323 1 -11.314425225017333 -6.818701447648888 6.826036688302226 0 0 0
324 1 -9.581228877400195 -5.1296291345415845 6.628501301071848 0 0 0
431 1 -7.691079680547031 -5.647564254654917 8.194725227372976 0 0 0
430 1 -6.0789131011491335 -3.877143165592841 7.752236371739398 0 0 0
429 1 -4.903407891981827 -6.111346285491998 7.194000253421896 0 0 0
428 1 -3.2490469490515235 -4.328361957230017 6.885193002650249 0 0 0
427 1 -2.3626535741143346 -6.701587074588513 6.3775050487473255 0 0 0
426 1 -0.5497966675289572 -4.815430782735463 6.045506060943962 0 0 0
380 1 -1.2521179575783083 -4.780609457748589 8.290473498829277 0 0 0
425 1 -13.123060528147453 -2.2014433679265366 7.976270461475865 0 0 0
357 1 -1.9583881581079918 -2.9925029833088796 12.157220579303333 0 0 0
424 1 -11.377637138722744 -0.4969671451931372 7.735957444642837 0 0 0
423 1 -10.400455063006259 -2.7862967376748315 7.211543712558759 0 0 0
422 1 -8.668323500187594 -1.0023669247216347 6.923207921389766 0 0 0
421 1 -7.906527624418938 -3.277227564367962 6.434980132774067 0 0 0
420 1 -6.132478715750674 -1.5456057820368443 5.923782556294869 0 0 0
377 1 -6.781324413258511 -1.5753757894171176 8.261947528786655 0 0 0
375 1 -4.348110628405033 -2.0700290678531967 7.400301689668202 0 0 0
374 1 -2.435564881408956 -0.3807648765073459 7.260271058796102 0 0 0
373 1 -1.5544007550645293 -2.5496087088857813 6.672782718884514 0 0 0
261 1 -12.921489356732684 -10.682328942531592 8.940340597801894 0 0 0
802 1 -12.681612210389712 -13.006287063650326 10.593291361861054 0 1 0
302 1 -13.502676022151727 -10.79141427580499 11.83292846775428 0 0 0
304 1 -10.966966159767983 -11.332425369966458 10.405092043482691 0 0 0
354 1 -4.839679539542354 -0.325992359631357 13.355392211501693 0 0 0
306 1 -8.354971961543708 -11.88396123510809 9.474033583363292 0 0 0
299 1 -6.414742145194471 -12.51256021963444 10.968361955597212 0 0 0
308 1 -5.577317295127742 -12.280797367694003 8.530995798070625 0 0 0
300 1 -3.7455125431421887 -12.946763491532433 9.962234438324577 0 0 0
450 1 -4.703925767597729 -10.599392642152143 10.738780633189508 0 0 0
448 1 -2.0182935717343735 -11.133360813881804 9.728481634460023 0 0 0
798 1 -1.06999731282073 -13.41402617291368 9.091205455183458 0 1 0
312 1 -13.757686487266662 -8.553861780301501 9.739089739036649 0 0 0
455 1 -11.868922023363007 -9.250238748229496 11.05298278780264 0 0 0
314 1 -11.098607813220905 -9.045137979436493 8.69851486614394 0 0 0
305 1 -9.08083307180286 -9.69700402544117 10.295599530417634 0 0 0
443 1 -10.101416172654197 -7.454318707563427 10.994705722021388 0 0 0
307 1 -6.623061374061286 -10.153356043189437 9.269191851325663 0 0 0
441 1 -7.542876020322179 -7.848941477781668 9.940049336259468 0 0 0
439 1 -4.774210631407218 -8.33699902659074 8.973823538439456 0 0 0
451 1 -5.707967973335338 -8.414204340346753 11.25373661170199 0 0 0
449 1 -2.8978052222127317 -8.843285150874014 10.443827564059779 0 0 0
390 1 -1.1926078110644465 -7.042200705518721 10.268776091513901 0 0 0
447 1 -0.16796971538612482 -9.32400245045118 9.588978791226777 0 0 0
313 1 -11.91517636868969 -6.836676335527237 9.317582692407738 0 0 0
435 1 -12.873335663062566 -4.427619178914664 9.919209809939085 0 0 0
433 1 -10.242601805497404 -5.12705321941014 9.011601777300653 0 0 0
395 1 -8.70905593472396 -3.4640215440795483 11.338513814876128 0 0 0
442 1 -8.407744424545925 -5.734698069590704 10.469082496996768 0 0 0
384 1 -6.586019583895072 -3.8590723412856835 9.900352467501706 0 0 0
440 1 -5.718478806083132 -6.2630662558404655 9.690388956808532 0 0 0
438 1 -2.9375183438990877 -6.55804612786583 8.676180228216614 0 0 0
392 1 -3.479445827721392 -6.673714767596002 10.999173264666494 0 0 0
382 1 -4.111566403882938 -4.329815816593268 9.148191309869572 0 0 0
391 1 -2.1549901957265956 -4.792396345775195 10.51672597393872 0 0 0
832 1 -9.216007562716609 -13.589384948536402 7.19926397276455 0 1 0
1233 1 -13.914562929887637 -2.31899330927485 10.393324408533593 1 0 0
379 1 -12.141684582398677 -0.5258650777260439 10.3036667859613 0 0 0
434 1 -11.059828611250376 -2.8094762953065313 9.824646558103568 0 0 0
378 1 -9.47353967583068 -1.0051957747367517 9.181530294757964 0 0 0
432 1 -8.584711887917031 -3.3156975046687283 8.813222799098222 0 0 0
385 1 -7.505265665520133 -1.4465127677360528 10.513292878680057 0 0 0
352 1 -3.2510520627378803 -0.4128907167081497 9.469044703372566 0 0 0
383 1 -4.982726759921219 -2.072730320795081 9.810285191243354 0 0 0
355 1 -0.16800620896139407 -3.2515130140008726 10.480405714621385 0 0 0
351 1 -0.6266406669344526 -0.8605722604274568 8.685562461264892 0 0 0
356 1 -1.3444083186713076 -0.9835778053457673 10.943586503269257 0 0 0
381 1 -2.2565881829509884 -2.666622242962143 9.150199888600751 0 0 0
812 1 -13.347736110142034 -13.222232750812097 12.903282746870543 0 1 0
297 1 -11.294541674494045 -11.645880944798169 12.9267302173244 0 0 0
464 1 -9.348862279388195 -13.338058152720281 13.835436251000845 0 0 0
298 1 -8.981512883893563 -11.872043888482485 11.772851511896574 0 0 0