LAMMPS data file via write_data, version 29 Sep 2021, timestep = 0

1840 atoms
3 atom types

-14.139144772925468 14.139144772925468 xlo xhi
-13.931387593556808 13.931387593556808 ylo yhi
-13.795067098227358 13.795067098227358 zlo zhi

Masses

1 55.847
2 1.008
3 1.008

Atoms # atomic

544 1 -12.653064175469598 -13.431555198667741 -11.711819325675256 0 1 0
131 1 -11.858271547248398 -11.206566959289407 -11.945142178498585 0 0 0
648 1 -10.368197580158341 -13.589703508546021 -10.738449755671613 0 1 0
307 1 -10.641238214761152 -12.907342409320838 -13.235657136286648 0 0 1
205 1 -9.565126202085242 -11.077464356260098 -11.232705652997279 0 0 0
77 1 -0.1782442564190987 -8.001809030870849 -2.730012754060981 0 0 0
234 1 -8.350168896566244 -12.589876860772467 -12.509617763637245 0 0 0
95 1 -5.900703448994884 -12.40450241528141 -11.909460307025443 0 0 0
58 1 -7.2704880252846396 -10.884019529812385 -10.623057770112167 0 0 0
92 1 -3.40901479281686 -12.275618643586483 -11.388597188745559 0 0 0
97 1 -3.800913711437161 -11.543696218041777 -13.650702714769336 0 0 0
305 1 -12.514892111030042 -4.328714724224271 -13.722993357667887 0 0 1
101 1 -1.0699784973599922 -12.113488249243455 -10.580459768520958 0 0 0
100 1 -1.316408800089956 -11.306193337256522 -12.957845280984118 0 0 0
588 1 -2.1869750677994446 -13.77659214685389 -12.632017533843992 0 1 0
207 1 -13.865008648472168 -8.975213594493665 -13.079555734047359 0 0 0
133 1 -12.776380851538619 -7.417082297380895 -10.970373867754521 0 0 0
130 1 -13.282488036101594 -9.740914473234916 -10.57606986380522 0 0 0
1126 1 -11.351100415627624 -8.908187530249673 -12.272689545836187 1 0 0
200 1 -8.86895997418056 -8.644986744117935 -11.501243529377936 0 0 0
311 1 -7.663059346389778 -10.307325621446846 -13.040336694157254 0 0 1
230 1 -6.601720014813979 -8.51286069770997 -10.85653319976511 0 0 0
308 1 -6.943567763580249 -7.963385869749635 -13.392434868106397 0 0 1
94 1 -5.280557838317732 -10.085782163321115 -12.27337991753999 0 0 0
21 1 -4.452529459516356 -7.800431641223039 -12.645359004169263 0 0 0
99 1 -2.839159589229409 -9.943825712308495 -11.685023968956688 0 0 0
104 1 -0.4417564896910573 -9.786186558251218 -10.930031736901428 0 0 0
96 1 -0.7989064794630707 -9.031913371808685 -13.400396176467614 0 0 0
102 1 -2.1544947892251134 -7.49548746980705 -11.865720629864384 0 0 0
129 1 -13.150343444254963 -6.588305138743946 -13.332554818909033 0 0 0
203 1 -12.111560024834835 -4.919354065047937 -11.301741308512621 0 0 0
189 1 -0.22963623174713987 -6.754016472307006 -13.66393233867667 0 0 0
202 1 -10.781059720498657 -6.4452873033171745 -12.64372962707857 0 0 0
232 1 -9.777186623581628 -4.873649662612552 -10.732470408136988 0 0 0
310 1 -10.01827799720939 -4.173819047375284 -13.163648675628881 0 0 1
226 1 -8.33653729875157 -6.330504999483092 -12.07097428726522 0 0 0
224 1 -5.808924780892763 -6.124513590004885 -11.339262212489313 0 0 0
23 1 -7.514998077488234 -4.0279666710884765 -12.269844823223448 0 0 0
231 1 -6.181763608274846 -5.643492329563639 -13.533499040026408 0 0 0
13 1 -3.504604159517008 -6.063430088968493 -10.54825743662771 0 0 0
15 1 -5.181653499085934 -3.7982592395175203 -11.587348254866228 0 0 0
367 1 -3.883961490412588 -5.300012861180329 -13.005255899238865 0 0 1
216 1 -2.8992806898549635 -3.5970534760276553 -10.860448543053323 0 0 0
14 1 -1.5684536341369242 -5.246632105755884 -12.18842531443938 0 0 0
885 1 -1.6661918100808428 -0.20373285942667962 -0.8009502964987778 0 0 0
193 1 -13.907351631713551 -2.809637488961622 -12.407627663370397 0 0 0
1123 1 -13.076926288267119 -0.3875379225415685 -12.704993422679335 1 0 0
233 1 -11.548891105073073 -2.5914055256527533 -11.665032150865569 0 0 0
227 1 -9.166720166229178 -2.525195882849408 -11.000065350549818 0 0 0
229 1 -10.766975076116658 -0.23220164324525605 -11.949014912799036 0 0 0
844 1 -9.464603001628664 -1.7705165581622424 -13.363925825935548 0 0 1
222 1 -8.473628630967411 -0.10467559003813953 -11.186855251888028 0 0 0
17 1 -7.105765697008292 -1.6947952807755229 -12.513020929295639 0 0 0
191 1 -3.277245701194479 -3.0181144073207076 -13.290049569032684 0 0 0
10 1 -4.6804989914971635 -1.4482498467288405 -11.973235590708832 0 0 0
159 1 -13.983829114113064 -12.018352905827188 -10.162667577012115 0 0 0
931 1 -0.9293932451839453 -2.942768394613397 -12.605926813653141 0 0 0
186 1 -2.1820889571788378 -1.2959907362221355 -11.318619175538089 0 0 0
932 1 -0.1635503969710399 -0.6002033781252223 -13.036977703061034 0 0 0
659 1 -2.547207163050553 -1.9116552257353199 -2.801251714659932 0 0 0
206 1 -9.9873027752985 -10.410997472610298 -13.539884826301723 0 0 0
132 1 -11.577167353143835 -11.80796760508067 -9.59121836922918 0 0 0
160 1 -13.591893254156112 -12.570928478218226 -7.904982124027852 0 0 0
60 1 -11.207430088635327 -12.537103073722525 -7.254240521128978 0 0 0
16 1 -9.163616383107929 -11.68076756683738 -8.862966371055368 0 0 0
59 1 -7.876358528013434 -13.216527030620142 -10.230072006037988 0 0 0
57 1 -6.8469253827157 -11.611753918537225 -8.186788401307739 0 0 0
903 1 -14.098718394842532 -3.4485661956961504 -3.6654979914252674 1 0 0
56 1 -5.483972290938743 -12.989405188277248 -9.614552795805434 0 0 0
91 1 -3.1488944822406335 -12.817132275475585 -8.936097677699973 0 0 0
53 1 -4.519662336918177 -11.3425329437288 -7.484253488562731 0 0 0
93 1 -4.796112702437686 -10.698349774438 -9.944045450687973 0 0 0
666 1 -5.173097818873538 -13.814898086065881 -7.128179666724052 0 1 0
208 1 -14.093306412978672 -5.877293123616825 -9.751701864237488 0 0 0
86 1 -0.6809060322389708 -12.829781555331689 -8.285230976328352 0 0 0
88 1 -2.452855661954098 -10.55814931631738 -9.324371356908062 0 0 0
87 1 -2.1656756482981105 -11.356695134977828 -6.870894520956708 0 0 0
161 1 -12.943468047546416 -10.374663691092506 -8.214930033859714 0 0 0
134 1 -12.393417990283737 -8.040167942792952 -8.630944239543638 0 0 0
201 1 -10.304962912382885 -7.096877875754043 -10.290382014765528 0 0 0
135 1 -10.85147478494045 -9.525288969262121 -10.004656650320072 0 0 0
136 1 -10.700553002767075 -10.103399255953017 -7.607667227661217 0 0 0
141 1 -10.00876869055214 -7.821447234891282 -7.857965205872516 0 0 0
199 1 -8.497065423102097 -9.371742837737118 -9.144401718252407 0 0 0
55 1 -6.168927736132652 -9.113779816323571 -8.448531660099889 0 0 0
158 1 -7.676032498197588 -7.699634811506062 -7.261064611223415 0 0 0
180 1 -7.954321557944742 -7.00572333854906 -9.665888848705158 0 0 0
19 1 -8.286423223349953 -9.917200749392439 -6.741794923575608 0 0 0
90 1 -4.1457641595834005 -8.326917636284717 -10.314375328594931 0 0 0
89 1 -3.861473483243831 -9.034240577650728 -7.837670374577939 0 0 0
103 1 -1.8405422760347463 -8.226109391822838 -9.63085128208986 0 0 0
82 1 -1.5630415034725562 -9.00755603219104 -7.226843462216297 0 0 0
163 1 -13.755647188561603 -6.550022027854234 -7.216937663668156 0 0 0
139 1 -11.791020785666522 -5.603963116471348 -8.950699426889095 0 0 0
138 1 -13.171511635696389 -4.178946829850478 -7.398544657965443 0 0 0
182 1 -9.25210798201929 -5.485461749163536 -8.18913515989831 0 0 0
219 1 -6.994401024461788 -5.441957190604851 -7.5465817878145 0 0 0
225 1 -7.392909637907271 -4.706922190358647 -9.938746708954323 0 0 0
223 1 -5.510712500454426 -6.835842443888032 -8.84474801019537 0 0 0
84 1 -3.2580445662145987 -6.7666119658196475 -8.13575222882475 0 0 0
218 1 -4.999837119003571 -4.5192959998271025 -9.249778945548995 0 0 0
213 1 -2.6763102840172586 -4.303451059900256 -8.390163034167866 0 0 0
106 1 -1.270431919412136 -5.871735959837851 -9.74003032143946 0 0 0
107 1 -1.0163385408859398 -6.575475547500943 -7.448753734547431 0 0 0
8 1 -0.3212348204918456 -4.239862713393846 -7.766633535954254 0 0 0
185 1 -0.5519484205887846 -3.617400449994962 -10.265637131451669 0 0 0
194 1 -12.85120901943105 -1.1741922899912947 -10.182065274021003 0 0 0
197 1 -13.542747737079933 -3.563973940146827 -9.887519128150982 0 0 0
192 1 -12.474208229108081 -1.8553839754421801 -7.849285524035539 0 0 0
137 1 -11.069608568121266 -3.3711509436718785 -9.110947492045874 0 0 0
114 1 -8.541694523975483 -3.1918618776470193 -8.649380976414234 0 0 0
112 1 -10.388805905008198 -1.0682921986478426 -9.590412096748977 0 0 0
113 1 -10.078984506935447 -1.6687551459067986 -7.181638639329046 0 0 0
220 1 -6.716025321901856 -2.366125745681577 -10.238614053657505 0 0 0
7 1 -6.293405158297951 -2.944521598461389 -7.685611378603795 0 0 0
221 1 -8.110472516570635 -0.8754521676553786 -8.798059555007846 0 0 0
6 1 -5.792428784946075 -0.5380166826020982 -8.10183364683311 0 0 0
217 1 -3.353974048987089 -0.5274577898995787 -7.445947820197584 0 0 0
4 1 -4.342483356986648 -2.0427299245958146 -9.47172062528446 0 0 0
80 1 -4.083990562526681 -2.832508693868199 -6.954072963943287 0 0 0
108 1 -2.020701197145417 -1.9710979338261723 -8.797033656391363 0 0 0
471 1 -13.364011618271228 -13.356929358772186 -5.472781177815431 0 1 0
162 1 -12.678371826554269 -10.92839455429515 -5.933177603049447 0 0 0
70 1 -12.328284762582461 -11.644261853259502 -3.394571477824874 0 0 0
63 1 -10.945329644546343 -13.244980056934034 -4.589247922676126 0 0 0
18 1 -8.810491964655785 -12.366082253199759 -6.461508391592106 0 0 0
61 1 -10.357489952675106 -10.833943479215428 -5.31866980324704 0 0 0
480 1 -8.589886448067464 -13.149870335227414 -4.073393181993005 0 1 0
22 1 -6.502318768787156 -12.268424391647983 -5.763487798177374 0 0 0
20 1 -7.939478278908497 -10.729990295690456 -4.44963350121431 0 0 0
24 1 -6.217217219226566 -12.917449824761682 -3.474315491866161 0 0 0
27 1 -5.587088627633369 -10.629868159717644 -3.7986791185658273 0 0 0
52 1 -4.136983928519516 -12.1628218580539 -5.227151933947656 0 0 0
673 1 -2.793575049996896 -13.717283646231115 -6.563380057528052 0 1 0
85 1 -1.840789501982309 -12.013897505922563 -4.468250647972731 0 0 0
664 1 -0.46562748450512004 -13.625228234738247 -5.918728231902434 0 1 0
166 1 -11.692374707050288 -9.360401882383407 -3.863566424406839 0 0 0
165 1 -12.02096413767283 -8.586006319924325 -6.185741437999013 0 0 0
164 1 -13.387786569157639 -7.17837187887773 -4.8058752738277715 0 0 0
142 1 -9.701034134178194 -8.478210661097998 -5.498074592812921 0 0 0
54 1 -5.872917774790073 -9.864878167405895 -6.152377183633598 0 0 0
25 1 -7.340485539111996 -8.252828442672897 -4.803503289379281 0 0 0
49 1 -3.617599293755708 -9.744548508333356 -5.4296583364999425 0 0 0
50 1 -4.8606887460124035 -8.281205335172007 -4.070363169701082 0 0 0
117 1 -5.307129073557327 -7.432173901581268 -6.408360628838165 0 0 0
83 1 -2.8080231363988677 -7.362882451255662 -5.744929119697769 0 0 0
81 1 -1.2702508777876904 -9.60545301599418 -4.794649388173667 0 0 0
78 1 -0.510620395750399 -7.223413806109581 -5.025103583807784 0 0 0
167 1 -12.702319604153221 -4.71348547752652 -5.132494715638028 0 0 0
140 1 -11.44503274863259 -6.196950118297239 -6.595088471529126 0 0 0
190 1 -10.603280077485541 -3.9566038457040076 -6.697114720415495 0 0 0
169 1 -11.044612677772452 -7.021455375118473 -4.195343708624902 0 0 0
147 1 -9.002190193863502 -6.144525167835168 -5.894811954666059 0 0 0
146 1 -10.322448165668074 -4.596314575969835 -4.3731643170370855 0 0 0
148 1 -8.533731777530292 -6.813797316280917 -3.428408392253571 0 0 0
115 1 -8.210219368899976 -3.832957182005357 -6.019503977160032 0 0 0
153 1 -6.664213566095291 -5.914048893924116 -5.037006344843505 0 0 0
116 1 -4.676085176028813 -5.172987014263921 -6.875378641858021 0 0 0
123 1 -4.369930794937476 -5.905745443131483 -4.455805280865894 0 0 0
214 1 -3.7353818672858115 -3.5297200382217344 -4.690509162490079 0 0 0
79 1 -1.95773548394164 -5.714186046026565 -3.7354394031421734 0 0 0
51 1 -2.407660053693002 -4.974547522577234 -6.018455559739792 0 0 0
481 1 -1.1990108183803674 -3.449521708227536 -3.999112668941013 0 0 0
145 1 -12.153871269375056 -2.474341362672007 -5.563493821323762 0 0 0
144 1 -13.601064128311634 -1.1445709868658582 -4.246630076295821 0 0 0
143 1 -13.863879377989624 -0.35675250634302813 -6.5872049265122055 0 0 0
149 1 -11.491471455880909 -0.021413942613316195 -6.020052865626912 0 0 0
128 1 -2.358452739534153 -2.6196538847508215 -0.39839882977615027 0 0 0
151 1 -9.701873213407747 -2.2123393198024868 -4.802509079964741 0 0 0
150 1 -11.187895471438896 -0.7494972489584253 -3.614875156824368 0 0 0
564 1 -6.3872985466601655 -0.205180149487596 -4.042815221632454 0 0 0
125 1 -6.225649878038053 -2.642975722110119 -4.9199113181695555 0 0 0
215 1 -7.684386357047129 -1.4991988429940974 -6.435265674973065 0 0 0
3 1 -3.9112955269588277 -0.9968980481229153 -4.786536688098273 0 0 0
2 1 -0.8160141939118084 -0.4277326616018797 -6.92226866673858 0 0 0
45 1 -1.8096537313096395 -2.5045680779887203 -6.304337161044888 0 0 0
957 1 -0.6971325856145807 -1.0482166657829222 -4.484943431815033 0 0 0
71 1 -11.991275933270959 -12.472468945863003 -1.0135809919424776 0 0 0
126 1 -0.13990180027829346 -1.705661329443588 -2.090023006720683 0 0 0
73 1 -9.648397699638013 -12.150095216228056 -0.4678969639552726 0 0 0
62 1 -9.980879829374851 -11.42962128983934 -2.862422901518986 0 0 0
67 1 -5.88825235842444 -13.626847040159854 -0.9348228288049132 0 0 0
66 1 -7.596524546176879 -11.3216547479865 -2.0280973241400986 0 0 0
457 1 -8.221026923699558 -13.794325862157812 -1.6714218577806381 0 1 0
29 1 -3.8156779968153725 -12.733166052830704 -2.785396249323547 0 0 0
28 1 -5.18222112783697 -11.215291503945233 -1.3740013971861256 0 0 0
473 1 -3.4661122807641007 -13.565559685944141 -0.48054092976247276 0 1 0
34 1 -2.7286927215754506 -11.144697681267598 -0.7554811325446753 0 0 0
47 1 -3.2375416306585443 -10.48773586286593 -3.018442371549261 0 0 0
46 1 -1.4590443098808663 -12.610929971093993 -2.1335942689496115 0 0 0
181 1 -9.17595053667917 -3.7963303125113192 -0.19403253172130874 0 0 0
72 1 -13.698161195685223 -10.08981762399925 -2.128922666716818 0 0 0
195 1 -13.133362801799063 -7.775515844975777 -2.4408099016636484 0 0 0
65 1 -11.425841749972639 -10.179053176412621 -1.34822925498335 0 0 0
64 1 -9.230845444816422 -9.09319003610832 -3.273373919559214 0 0 0
69 1 -8.978712048233666 -9.846721213925683 -0.8185540583659048 0 0 0
170 1 -10.750511854156164 -7.8386020144717365 -1.7744879655959345 0 0 0
32 1 -5.892320965037255 -7.447984972931146 -0.35187846026355096 0 0 0
26 1 -6.924395965623532 -9.024146298222956 -2.420604187336302 0 0 0
68 1 -8.356691947592225 -7.590457652121282 -1.0266065442031174 0 0 0
121 1 -4.677964019166932 -2.859150209801715 -1.0705144165368186 0 0 0
48 1 -4.649879846148318 -8.931071521631281 -1.6677413347536199 0 0 0
105 1 -0.17495822066627653 -10.49002340528854 -8.554546733115025 0 0 0
43 1 -2.725361588817231 -8.157289854604919 -3.2217096448351796 0 0 0
41 1 -0.7390784108931125 -10.36950748845032 -2.2943508168303364 0 0 0
36 1 -2.286891199599692 -8.7168605263176 -1.0003010588189198 0 0 0
904 1 -13.80545608199447 -3.969406848467557 -1.3713611481413892 1 0 0
198 1 -12.205565029808989 -6.179088442674576 -0.330075231961624 0 0 0
168 1 -12.419786843003713 -5.455802057147485 -2.775885443410324 0 0 0
174 1 -11.37834265520482 -3.8873383056390747 -0.786631736682903 0 0 0
1000 1 -13.91399613395498 -9.426191065389478 -4.538300300484426 1 0 0
175 1 -10.107373799548743 -5.547808069865143 -2.0075865693592707 0 0 0
31 1 -6.176089821611688 -6.769221559916229 -2.6451010158474535 0 0 0
154 1 -7.632382944902195 -5.205156930337111 -1.3544749390881243 0 0 0
122 1 -5.6488556716180245 -4.428601240245984 -3.1636612631317487 0 0 0
44 1 -3.978485425257203 -6.536146214132534 -1.9832934911499596 0 0 0
127 1 -3.1926026862083727 -4.1614210711568145 -2.30774588498244 0 0 0
38 1 -5.2817033156080715 -5.225760120389934 -0.6104038721957128 0 0 0
37 1 -1.5855267410213418 -6.526451936853499 -1.341107026150615 0 0 0
39 1 -0.8525155742817727 -4.101530649745889 -1.66046207484362 0 0 0
173 1 -11.654398522417518 -3.0412879159868957 -3.191312299791795 0 0 0
171 1 -13.115768627251011 -1.7632649365438091 -1.9581628360506595 0 0 0
152 1 -9.036762610491468 -3.2217090763168166 -2.5908956374180327 0 0 0
179 1 -10.816174112414565 -1.6567874611896478 -1.3039042641880734 0 0 0
155 1 -8.729909202940316 -0.6910341160056035 -2.824325788517875 0 0 0
156 1 -8.464027132774888 -1.4782544905833124 -0.5206099640067716 0 0 0
157 1 -6.660999328193432 -1.8296478902490545 -2.238319584871899 0 0 0
532 1 -4.554353765987431 -0.39669820132885114 -1.8255325974119252 0 0 0
710 1 -4.590269869729884 -13.885031752161513 -13.264955618911268 0 1 1
119 1 -9.017740450459344 -0.013747114977814334 -5.229692423799573 0 0 0
1187 1 -12.83133636739296 -8.57316692966865 -0.2003233400363662 1 0 0
581 1 -7.363130630491619 -13.852600196226131 -7.773710438077424 0 1 0
11 1 -6.127302834467438 -0.05471494560917556 -10.62594234602396 0 0 0
460 1 -10.582937413893921 -13.802306513763591 -2.40023918421951 0 1 0
187 1 -2.457261012406512 -0.7064604297958788 -13.584218762871858 0 0 0
40 1 -2.8363534736634612 -4.943964653739508 -0.05969908542239999 0 0 0
423 1 -13.110298937808121 -11.56590093688526 2.866041178145492 0 0 0
302 1 -11.705387345040334 -13.172890251218993 1.3554963802252828 0 0 0
329 1 -13.464197185017042 -11.01334296043991 0.3863048739491468 0 0 0
802 1 -5.176443480400199 -0.7966229448019106 13.292909251872702 0 0 0
274 1 -9.380189149710606 -12.934454847504323 1.976494053232793 0 0 0
301 1 -11.06800558887793 -10.782179719594271 0.9535329109178203 0 0 0
431 1 -10.592955227142381 -11.353593003985367 3.392605316619333 0 0 0
272 1 -8.711021945364344 -10.60622884613114 1.6337840813043556 0 0 0
243 1 -6.825277436879072 -12.76084176793584 2.716630906003937 0 0 0
273 1 -7.245355893751084 -12.147892027688586 0.2933441041585869 0 0 0
30 1 -4.824697991682694 -12.087299717637476 0.9532391129155311 0 0 0
277 1 -4.471868397113221 -12.717673905633614 3.3773464052287405 0 0 0
284 1 -2.466710515407618 -11.918741670453333 1.6895222414052071 0 0 0
283 1 -1.0435631816173352 -13.311102684356117 0.27195168283485494 0 0 0
679 1 -6.073415826898877 -1.1378682226724255 0.30032416333015277 0 0 0
360 1 -5.332941780128474 -0.18874090773975638 10.782846999176902 0 0 0
1170 1 -7.482685632431608 -0.9997854159751771 12.639665353344325 1 0 0
300 1 -12.426497562020819 -9.272046715709028 2.2864719079290428 0 0 0
425 1 -10.062142364538076 -9.002908256667752 3.001646574821388 0 0 0
196 1 -10.396316421831363 -8.351701682116566 0.44964335546301015 0 0 0
432 1 -6.197189176721566 -10.48438890154643 2.286991233713687 0 0 0
299 1 -7.968493765708574 -8.268370551366598 1.171658251084196 0 0 0
271 1 -5.704856963320561 -8.197086569380179 2.0298034074535316 0 0 0
444 1 -3.9412191202581326 -10.40667935403734 3.0788768953655126 0 0 0
242 1 -4.231244434957629 -9.694516863021112 0.6683503661996539 0 0 0
241 1 -3.205294742374365 -8.065206682463158 2.6514591272398054 0 0 0
42 1 -3.6296087153949745 -7.236076208277048 0.47809030918331885 0 0 0
286 1 -1.7579190957652902 -9.484306030348744 1.2683717177192193 0 0 0
287 1 -1.2744687118005817 -7.158099763298038 1.0698263318720258 0 0 0
280 1 -0.982046604540951 -7.832455701443148 3.4177040825672815 0 0 0
327 1 -11.753404573764216 -7.046359400299355 2.076162798930234 0 0 0
1139 1 -13.42510974364054 -4.644786541178014 1.0016079203642825 1 0 0
416 1 -13.264040869962928 -5.419232456189961 3.3037627379529138 0 0 0
298 1 -9.352803506276938 -6.833803112193669 2.583997774913902 0 0 0
325 1 -11.099784506039759 -4.526457729359635 1.619124137685466 0 0 0
296 1 -8.82953927145758 -4.471975349438184 2.3384623608845754 0 0 0
176 1 -9.831899667306793 -6.060356250162395 0.327663435679316 0 0 0
297 1 -7.452120889617985 -5.7966573162526895 1.03271216412959 0 0 0
268 1 -6.400264045285835 -4.2327041300153 2.8890688182349944 0 0 0
270 1 -7.093457298845724 -6.527373796213674 3.3793592335414626 0 0 0
269 1 -5.0381444191469935 -5.859502410740973 1.6830111679182966 0 0 0
421 1 -11.393617438283183 -13.635109855368118 3.6806777661038925 0 0 0
240 1 -2.6032428059022976 -5.70168662830487 2.3225430486364136 0 0 0
917 1 -0.4968233107022293 -4.9345844962794505 0.6657408153776121 0 0 0
288 1 -0.27065361826424983 -5.589417948102994 3.0766764289360875 0 0 0
1254 1 -0.0935507711290331 -9.200658082471143 8.102516314446584 0 0 0
324 1 -12.42652871642666 -3.029641843629234 3.0222465081266687 0 0 0
350 1 -12.788987815864377 -2.292703575951375 0.6388456226906563 0 0 0
322 1 -11.73941156132328 -0.6990413638914248 2.7146953925967647 0 0 0
323 1 -10.465456245210737 -2.1401223322916447 1.1899039536064127 0 0 0
721 1 -9.399321673897497 -0.6329122295849974 3.2629448613590792 0 0 0
314 1 -5.685291729243366 -3.214843814703947 13.635247930816496 0 0 0
295 1 -6.853219370923292 -3.4513868020547456 0.3169399428890678 0 0 0
294 1 -8.16476708958475 -2.2210488725709716 1.903597594714924 0 0 0
266 1 -5.824921334161097 -1.9613952818622185 2.5888896365000367 0 0 0
267 1 -4.388115569778266 -3.4036205987012114 1.345097405420434 0 0 0
265 1 -3.679830664600198 -1.0070047587360218 0.8055434734593323 0 0 0
238 1 -1.9365275984345942 -3.4147909398617955 1.954927869745406 0 0 0
209 1 -1.2094947878095486 -1.1636012966910592 1.478701672316351 0 0 0
178 1 -12.083927935644422 -0.06890521391761517 0.23720700399867134 0 0 0
422 1 -12.668996870874304 -12.244247742514233 5.086379170485808 0 0 0
883 1 -8.861260444136825 -13.669046125358571 4.28966267871345 0 1 0
375 1 -10.251940176146519 -12.17776232346922 5.709940323119367 0 0 0
874 1 -8.355315671872466 -11.461765866597567 4.073972841338938 0 1 0
441 1 -6.662163808035299 -13.61336483882364 5.047338399374359 0 0 0
403 1 -7.913460759977811 -12.050161767912263 6.487506434044112 0 0 0
434 1 -5.8714100271529635 -11.225688729885132 4.770020085286275 0 0 0
443 1 -4.180167530034256 -13.439057039072253 5.670438583844865 0 0 0
892 1 -3.5783236484819074 -10.975408528145248 5.430749967858963 0 1 0
260 1 -1.8825730926188626 -13.179000755229778 6.381843634486392 0 0 0
404 1 -2.2322804600078356 -12.594911278368087 3.999091480641054 0 0 0
261 1 -1.3002405970694557 -10.833104628981445 6.156515749015687 0 0 0
328 1 -13.818890955848394 -7.7816326956938315 3.7584106444821987 0 0 0
424 1 -12.08529753161364 -9.82442604995779 4.734541241769792 0 0 0
414 1 -13.458472368431353 -8.35297494507385 6.070780870921842 0 0 0
426 1 -11.334693480746356 -7.4695805497853796 4.392975996833213 0 0 0
392 1 -9.747902005362398 -9.773140635964488 5.430725060346637 0 0 0
427 1 -9.14823198556868 -7.428583579653866 5.153179711851637 0 0 0
377 1 -11.077284070601966 -8.281287234272327 6.72029372781912 0 0 0
385 1 -7.711270704535715 -8.946629190418248 3.7211738476365586 0 0 0
394 1 -7.491592019628707 -9.476706294445714 6.004622586397685 0 0 0
387 1 -6.7604158167176 -7.2951158167888615 5.899244699362837 0 0 0
436 1 -5.3066225806255165 -8.744897537087034 4.382297437099746 0 0 0
435 1 -4.334831393317442 -7.072826324586471 6.346135530528022 0 0 0
393 1 -5.077412085525756 -9.529379276400249 6.755452274376053 0 0 0
279 1 -3.073523286309241 -8.691939920555114 4.9657216718632515 0 0 0
278 1 -1.457817470145379 -10.197688889799824 3.809576331213419 0 0 0
263 1 -0.5993851209132366 -8.626758769852522 5.740549787324328 0 0 0
415 1 -12.950276050147908 -6.143583551038066 5.573063690330221 0 0 0
1178 1 -12.030139222527898 -3.664216671897229 5.385346624833771 1 0 0
418 1 -10.832659535639925 -5.135806926593803 4.024505287014689 0 0 0
388 1 -10.667901497633663 -5.830753210698935 6.518647967474243 0 0 0
337 1 -9.87981867435643 -3.601255657430972 6.22874572842524 0 0 0
389 1 -8.4776224474215 -5.074518531846671 4.847404906460168 0 0 0
348 1 -6.03235454364019 -4.949157429081366 5.446365219630261 0 0 0
437 1 -4.672668500738924 -6.427278299411297 4.066073880695667 0 0 0
239 1 -3.9724158031014074 -4.194267041081513 3.5747631965928104 0 0 0
447 1 -3.820687462085024 -4.765436642374839 6.139076266257673 0 0 0
446 1 -2.3592030342898003 -6.236932509752706 4.737078767346782 0 0 0
448 1 -1.76581325343186 -4.108742777373431 4.338774909766569 0 0 0
281 1 -1.3725644272851003 -4.621072086517138 6.754010366377729 0 0 0
411 1 -13.85110667886002 -1.5339713752435973 4.351780384393942 0 0 0
371 1 -13.454361617334976 -2.2032586981906555 6.699622808994546 0 0 0
420 1 -11.44066449043455 -1.3847983305824165 5.122320545004145 0 0 0
419 1 -10.012677994229815 -2.851672707769012 3.712300587456502 0 0 0
430 1 -9.14442907814501 -1.3273100742691337 5.757957448908387 0 0 0
378 1 -7.422450628255067 -3.4133109973788507 6.533139815348877 0 0 0
428 1 -7.7805368045439005 -2.7783459810796565 4.346318271141884 0 0 0
720 1 -7.1537655317727875 -0.5496130950468139 4.011976925049174 0 0 0
439 1 -6.789273623574435 -1.1207928962460176 6.39110344038801 0 0 0
237 1 -3.3466237215145416 -1.9183283379221567 3.089154957170747 0 0 0
440 1 -4.692199870010686 -0.34765410729032276 4.699239891804583 0 0 0
438 1 -5.42588942074927 -2.6835391379772027 4.949483203841785 0 0 0
449 1 -2.9505483694238688 -2.6163586736410824 5.7078055060523685 0 0 0
282 1 -0.6993082138581208 -2.33169589500236 6.470754710413926 0 0 0
450 1 -1.078267281609337 -1.689440924393903 4.030096362453312 0 0 0
850 1 -2.3422447144911427 -0.16754313654239006 5.325847552301992 0 0 0
382 1 -12.311499197963773 -13.035041915966653 7.5544445408934475 0 0 0
373 1 -13.746166782039914 -11.488475582331237 8.82217787609727 0 0 0
306 1 -11.894550199756152 -13.72834093183167 9.81625086275888 0 0 0
384 1 -11.856097527814232 -10.627157062128639 7.1291458644845225 0 0 0
334 1 -11.450527446787325 -11.264607255308945 9.447402161326517 0 0 0
341 1 -10.068669145928652 -12.902078336087886 8.114853483620005 0 0 0
332 1 -9.149109742791897 -11.19531014776187 10.188401161330352 0 0 0
386 1 -9.43137424897759 -10.564842742394989 7.768444727300912 0 0 0
391 1 -7.5710204348544154 -12.712676294310233 8.83724216758529 0 0 0
366 1 -5.424705868690227 -11.924638958483659 7.153102543459456 0 0 0
364 1 -5.1883000090775955 -12.6425885256351 9.557514852339517 0 0 0
402 1 -3.0432498470991796 -11.797791911159022 7.825017345004438 0 0 0
253 1 -2.8225068017549653 -12.502061902276605 10.163055464290162 0 0 0
1252 1 -0.818915790431971 -11.487509894927483 8.46680111238519 0 0 0
33 1 -6.618135027105177 -9.819148424453347 0.005146482332536451 0 0 0
376 1 -13.125296866301003 -9.046698633901826 8.479714065582892 0 0 0
1162 1 -10.636883784309102 -8.89763191736078 9.172588185914728 1 0 0
395 1 -8.86874475889778 -8.036035359942094 7.639118184482809 0 0 0
354 1 -7.138796615262843 -10.394016164780037 8.39328969817313 0 0 0
313 1 -8.198974175031424 -9.011777453032252 9.829042730173926 0 0 0
397 1 -6.489851810888892 -8.079275625000282 8.244346466475404 0 0 0
406 1 -4.730793028189646 -10.26019230650661 9.046125131485484 0 0 0
396 1 -4.128886611755997 -7.872758970603317 8.779011749836085 0 0 0
1332 1 -0.07380232968365164 -11.799464978256466 2.5499902965081827 0 0 0
262 1 -2.7189246893645116 -9.336159298596698 7.403628963161589 0 0 0
254 1 -2.3805716736814055 -10.045248399886418 9.874530345479473 0 0 0
256 1 -1.6213625187633465 -7.779725890795473 9.434511917077094 0 0 0
264 1 -1.989955505649018 -7.0150832412111 7.140490667837016 0 0 0
321 1 -12.478212449627186 -6.728914215918006 8.15995697144375 0 0 0
320 1 -1.2491729463446788 -2.275036213286864 12.516689618000518 0 0 0
429 1 -8.28678257760242 -5.721304347039053 7.178716292260313 0 0 0
379 1 -7.948301835816736 -6.41099083674702 9.513471688839187 0 0 0
349 1 -6.983571027790168 -4.236369702950336 9.260526521242012 0 0 0
357 1 -5.873396051724239 -5.758984663771747 7.938034945993616 0 0 0
407 1 -3.349472296557183 -5.625138396885692 8.608188405778302 0 0 0
358 1 -4.752306389895917 -4.140184625695811 9.914588001486871 0 0 0
356 1 -5.354545939595532 -6.3934648870780055 10.295098220783784 0 0 0
1209 1 -0.9442916511806043 -5.497419240142593 9.135204213126434 0 0 0
380 1 -12.409911945420072 -0.584731266166342 8.602513256460702 0 0 0
399 1 -6.47090470669 -1.9842526984032371 8.722732396869981 0 0 0
803 1 -7.863887300582559 -0.43190744846298657 10.279207796139096 0 0 0
400 1 -4.484551639781209 -0.9474965493462335 6.99911348842774 0 0 0
398 1 -5.0511219885651375 -3.4038694770964266 7.492707228305514 0 0 0
409 1 -4.01912344260033 -1.8070758902186679 9.403710837783118 0 0 0
275 1 -0.32214860171169946 -3.00106722847627 8.897379866013553 0 0 0
408 1 -2.6724685281939866 -3.273669466261186 8.088373261163254 0 0 0
370 1 -1.6008658789222387 -1.496268496732588 10.115935269309498 0 0 0
410 1 -2.132522541503798 -0.9641654427563076 7.7029303040116535 0 0 0
291 1 -12.978295811385044 -12.85238381100413 13.4873718752092 0 0 0
1208 1 -13.337654781125075 -12.182080055036177 11.083643639842569 1 0 0
292 1 -12.385619449842597 -10.47401541106137 13.20940708338714 0 0 0
433 1 -9.722105397661899 -13.643411166323085 10.441260795637357 0 0 0
383 1 -10.995371407946884 -12.049496315486028 11.871021708761448 0 0 0
343 1 -8.690309022880196 -11.959580227575202 12.533951255964523 0 0 0
352 1 -7.295330460851193 -13.552676022806695 11.148485814163907 0 0 0
361 1 -6.162875773770268 -11.71345470942724 13.226110797502242 0 0 0
445 1 -6.7057012856122356 -11.168298083835396 10.741689471425898 0 0 0
363 1 -4.911155968166982 -13.33836320069053 11.846736761304053 0 0 0
316 1 -4.241412147367381 -10.956895200725416 11.486636455452016 0 0 0
858 1 -14.095738151842843 -13.294222488776953 0.8401962785660082 0 1 0
1212 1 -0.43300119999511466 -12.407647122380432 10.867871645322564 0 0 0
249 1 -2.403159527892745 -13.069010540155443 12.479835466181905 0 0 0
250 1 -1.8508715388227 -10.735465395926012 12.13089107878938 0 0 0
338 1 -11.866245594009033 -7.354110710795346 10.492271918797384 0 0 0
336 1 -12.659078849569699 -9.759154108686591 10.817868500836921 0 0 0
342 1 -11.665288393282136 -8.056835181950513 13.015404419772684 0 0 0
345 1 -10.3516891766146 -9.543949248238691 11.693733405756257 0 0 0
390 1 -9.572993195821068 -7.415778056090235 11.039838849089739 0 0 0
293 1 -9.375892436216743 -7.980425036575553 13.69642466918255 0 0 0
365 1 -5.9502428053221355 -8.878745371617349 10.544183000810682 0 0 0
355 1 -7.9816501435398735 -9.502936321330655 12.240847749305258 0 0 0
309 1 -7.2607648885941565 -7.274395208812077 11.803737698767078 0 0 0
98 1 -3.1792117685660486 -9.253091829784777 13.570648969088095 0 0 -1
405 1 -5.527279496205656 -9.54532551790487 12.85829460176881 0 0 0