LAMMPS data file via write_data, version 23 Jun 2022, timestep = 0

1866 atoms
3 atom types

-13.648392155793813 13.648392155793813 xlo xhi
-13.722358109777705 13.722358109777705 ylo yhi
-14.652913228492737 14.652913228492737 zlo zhi

Masses

1 55.847
2 1.008
3 1.008

Atoms # atomic

173 1 -10.745114494512757 -13.272055401607405 -13.489135336002425 0 0 0
164 1 -10.907018046287252 -10.506229620096068 -12.88433217545893 0 0 0
201 1 -6.970807287419867 -2.4139634024175063 -1.5121252574849056 0 0 0
502 1 -12.883208116887488 -0.007042538193186232 -0.6976247432621037 0 0 0
171 1 -7.824774105603711 -13.09193613479642 -13.530490523175056 0 0 0
172 1 -9.398009697571615 -12.077152127809464 -11.80337914448119 0 0 0
169 1 -5.036225102271594 -12.851173633657767 -13.533764331217437 0 0 0
168 1 -3.5795058297421694 -11.757843236219518 -11.983524899731155 0 0 0
170 1 -6.640978475893665 -11.85816702311322 -11.893763750437783 0 0 0
271 1 -2.154208956161156 -12.734389544146092 -13.643259394455972 0 0 1
166 1 -0.8408564100848199 -11.446029684321125 -12.22689416984208 0 0 0
155 1 -11.035886163466984 -7.631359734732856 -12.418995226845212 0 0 0
423 1 -12.377363573859455 -8.843872873995462 -14.0447700599085 0 0 1
162 1 -8.066041364122295 -10.370378361297089 -13.06623193053966 0 0 0
153 1 -8.194826203260057 -7.594060674386823 -12.551756069660618 0 0 0
189 1 -9.659121727359643 -8.706145538857838 -14.222305768671587 0 0 0
188 1 -6.605086653330585 -8.47326468484399 -14.317789620073501 0 0 0
160 1 -5.213063663373081 -10.159787266938665 -13.0817204476918 0 0 0
151 1 -5.444116493891123 -7.319077833218125 -12.792400891592585 0 0 0
187 1 -3.876300010957415 -8.403450974866914 -14.354904462348271 0 0 0
5 1 -0.10512414213308752 -1.990560254414671 -9.18323321020993 0 0 0
158 1 -2.3095704811842275 -9.931246002095943 -13.201309548790846 0 0 0
149 1 -2.5113265477428452 -7.0602065208806515 -12.840522032195652 0 0 0
185 1 -12.527381201744944 -6.038134424319972 -13.526719866021192 0 0 0
146 1 -11.046000547485134 -4.85080135074743 -12.083079985958037 0 0 0
184 1 -9.66941164726148 -6.023529525834757 -13.722725802489236 0 0 0
144 1 -8.159774064501434 -4.736349787962526 -12.19717759031228 0 0 0
183 1 -6.747872930210295 -5.647868070182962 -14.016152719717313 0 0 0
142 1 -5.414108701445173 -4.395210562237901 -12.390493673855294 0 0 0
182 1 -3.878727687547215 -5.635746124641033 -14.079251847776916 0 0 0
140 1 -2.612013232670133 -4.306493182313888 -12.53702081759562 0 0 0
245 1 -1.0237332247522684 -5.371223236067111 -14.132015402750993 0 0 1
180 1 -12.571656146933847 -3.3443708084737462 -13.079256162276673 0 0 0
500 1 -12.788336089642 -0.6343392741913529 -12.687400632955134 0 0 0
175 1 -11.290609841608802 -1.5229757453498873 -14.34629095955115 0 0 0
179 1 -9.74583281800327 -3.096550052885817 -13.27660623567043 0 0 0
499 1 -10.008261108437567 -0.296696711270684 -12.767862795438454 0 0 0
178 1 -6.950208059986705 -2.7871229388129617 -13.352204411960049 0 0 0
498 1 -7.134479414518462 -0.11523831052519462 -13.000675882102296 0 0 0
408 1 -8.570031999726769 -1.2099169299806185 -14.490888008416453 0 0 1
177 1 -4.090319120444365 -2.607990723573664 -13.533008211821544 0 0 0
133 1 -5.473789972651705 -1.6995795658650845 -11.778987456402488 0 0 0
1060 1 -12.266976423333947 -11.598240452805893 -14.506831812996648 1 0 0
176 1 -1.289998365715661 -2.5034834114035114 -13.626247786109772 0 0 0
131 1 -2.766081585638421 -1.3764449198748743 -11.939284372401614 0 0 0
196 1 -1.206849376974592 -1.9942896836769766 -1.9050223240916395 0 0 0
174 1 -12.309762340089192 -12.15164600618846 -11.660498854217131 0 0 0
119 1 -10.873893617376389 -10.97184767342338 -10.10713996696997 0 0 0
186 1 -1.0662223233089314 -8.23824131850801 -14.464777354438047 0 0 0
117 1 -8.106675556076864 -10.869578761579252 -10.146948328509898 0 0 0
128 1 -9.485453714766166 -12.693600664845391 -8.921853734156237 0 0 0
198 1 -5.607152120943434 -0.9765862149753239 -0.06933288753375955 0 0 0
115 1 -5.109596610409472 -10.6407106885584 -10.397054658097566 0 0 0
125 1 -6.633130941326511 -12.385061892990215 -9.130624435469608 0 0 0
123 1 -3.808233705980335 -12.387575149985434 -9.108496842818168 0 0 0
124 1 -5.13301721835478 -13.522078040137158 -10.753435910082288 0 0 0
121 1 -0.9620101241605088 -11.979510148610718 -9.387933603306347 0 0 0
122 1 -2.2124173075272306 -13.329917289029739 -10.829786644552806 0 0 0
113 1 -2.3875471854861363 -10.459481849771533 -10.3189233917745 0 0 0
165 1 -12.35142632339343 -9.390483557676601 -11.217672783182275 0 0 0
110 1 -10.939256571265968 -8.205085568390247 -9.645528496304628 0 0 0
163 1 -9.508673792045581 -9.329548576263242 -11.37917010754276 0 0 0
108 1 -8.184678205001 -8.20180808410289 -9.764132968648228 0 0 0
159 1 -3.7895736968799127 -8.839114035601138 -11.66701329153332 0 0 0
161 1 -6.675810748060145 -9.168743800703478 -11.424861733936996 0 0 0
106 1 -5.293980523846832 -7.947634470467522 -9.960334345701616 0 0 0
157 1 -0.9432606966801949 -8.695429461119613 -11.74104302402648 0 0 0
104 1 -2.452714575852461 -7.7053418404824106 -9.991062683541081 0 0 0
112 1 -0.9772608935577658 -9.256708067655218 -8.967544214064993 0 0 0
156 1 -12.4981056905097 -6.558455493409232 -10.709682741342016 0 0 0
980 1 -12.791303408497265 -3.8594545194934184 -10.232215485878577 1 0 0
101 1 -11.118226876907675 -5.558117002136635 -9.172249873719812 0 0 0
154 1 -9.754147055969083 -6.552627234111322 -10.901717870241672 0 0 0
99 1 -8.27172889408056 -5.249349717054244 -9.32530400734366 0 0 0
145 1 -9.767879886257763 -3.6904372044661056 -10.42006912495976 0 0 0
143 1 -7.009032434090767 -3.4367699339400133 -10.57476322182513 0 0 0
152 1 -6.787256492695919 -6.273189601831248 -11.041288074119324 0 0 0
97 1 -5.379974777262673 -4.995135975085059 -9.438498058666434 0 0 0
150 1 -4.048761837024127 -6.068463371411378 -11.32143423655988 0 0 0
95 1 -2.7065042591143023 -5.0686541825967115 -9.622185402533443 0 0 0
148 1 -1.1409079517570824 -5.839930632727285 -11.323262533056962 0 0 0
137 1 -11.262988777356583 -2.2126425172028235 -11.57029677312187 0 0 0
970 1 -12.729145374023846 -1.1070058331377073 -9.834905203898154 1 0 0
135 1 -8.443477274378695 -1.8994169689216314 -11.687496402970336 0 0 0
136 1 -9.967280891005537 -0.8768118399398883 -10.004952290432112 0 0 0
134 1 -7.025128658980458 -0.6405557558053872 -10.160012930832753 0 0 0
141 1 -4.127518225045966 -3.2898777236063754 -10.64017458528827 0 0 0
132 1 -4.258068222084383 -0.5634125466223416 -10.23348942639128 0 0 0
88 1 -5.741091271682355 -2.2981381584146643 -8.929646560628147 0 0 0
130 1 -1.3514874127205978 -0.3987377422252294 -10.26456067092196 0 0 0
139 1 -1.2716091384420984 -3.1507450668272057 -10.868175699020174 0 0 0
86 1 -2.672405025395486 -2.235055732087268 -9.127623344383665 0 0 0
129 1 -12.264443319068041 -12.837119979637825 -8.80227096156797 0 0 0
127 1 -10.735633470692099 -11.613140643409402 -7.302202679955102 0 0 0
74 1 -12.050248884992811 -13.378246746517902 -5.999398995049745 0 0 0
72 1 -8.102280857970573 -11.467805167622958 -7.273262938869254 0 0 0
82 1 -9.305516895407088 -13.170298312419337 -6.038631062257071 0 0 0
80 1 -6.645140523433292 -13.060933042443098 -6.28072688670996 0 0 0
70 1 -5.100138779938918 -11.38545984855106 -7.491000248981393 0 0 0
78 1 -3.7467909072119987 -12.935020741636256 -6.29520593534769 0 0 0
68 1 -2.2891353365572105 -11.083377071555969 -7.6112071965869195 0 0 0
76 1 -0.6504691487650263 -12.676568182059274 -6.482979717055711 0 0 0
120 1 -12.36221481405688 -10.01979759332162 -8.388550716860578 0 0 0
65 1 -10.916367162402475 -8.768609827472252 -6.825022062465564 0 0 0
1105 1 -12.573070513015688 -7.244792887300348 -7.8860864929919785 1 0 0
118 1 -9.43020518465566 -9.86797161081972 -8.420117413211145 0 0 0
63 1 -8.164546675786191 -8.58840938407938 -6.864232441488671 0 0 0
109 1 -9.624487603033872 -7.047178915524129 -7.988301367307741 0 0 0
107 1 -6.809551084185484 -6.867039514612054 -8.284938651815096 0 0 0
114 1 -3.9234332568194077 -9.453585411144854 -8.726578092388792 0 0 0
116 1 -6.579340934876288 -9.714919759787957 -8.552087580600304 0 0 0
61 1 -5.145888928554605 -8.471402854299475 -7.022344502829813 0 0 0
69 1 -3.8644260884245867 -10.095330116789235 -5.961127727911974 0 0 0
59 1 -2.24562021008129 -8.192014572693306 -7.190730883633505 0 0 0
67 1 -0.9879147264087944 -9.817238965300639 -5.946469566736676 0 0 0
1115 1 -12.638187145700542 -4.524851972696231 -7.371514932404207 1 0 0
111 1 -11.07905663653763 -6.079210876454559 -6.342847050388315 0 0 0
100 1 -9.826736251881139 -4.181562453234644 -7.565569725051528 0 0 0
54 1 -8.245642941058874 -5.753273708829628 -6.50869631705088 0 0 0
98 1 -6.924118191354358 -4.1241325483614695 -7.746241664116233 0 0 0
105 1 -3.9472394825518684 -6.779947767875108 -8.262988391734353 0 0 0
52 1 -5.422166359155401 -5.674440919875806 -6.584535798105781 0 0 0
96 1 -4.1032696538510685 -3.9768729088586348 -7.847358682895484 0 0 0
103 1 -1.1535181154377323 -6.5222468198876795 -8.42762068588915 0 0 0
50 1 -2.5573507685450227 -5.498490958562581 -6.645109292177077 0 0 0
94 1 -1.30357386058105 -3.9635386179136347 -8.122618309297199 0 0 0
147 1 -11.269015814880088 -2.7508056033171346 -8.775266409657817 0 0 0
1125 1 -12.721707934275722 -1.7047477703202638 -6.9467384453568135 1 0 0
102 1 -11.318187914857798 -3.396358851303326 -5.772179577488865 0 0 0
90 1 -8.453825704540918 -2.4289725711778356 -8.861673841045356 0 0 0
92 1 -9.851311452648675 -1.4155880909698126 -7.192406349796316 0 0 0
89 1 -7.12633268735893 -1.3438784424793244 -7.307102304453534 0 0 0
45 1 -8.486594474630701 -3.004968012906666 -6.00378319884204 0 0 0
87 1 -4.3307871582842346 -1.1107165625634963 -7.385675163064025 0 0 0
43 1 -5.636114832897521 -2.7439018567049587 -6.079482385145823 0 0 0
85 1 -1.4017301894982541 -0.9448272439365901 -7.510018110384242 0 0 0
41 1 -2.6454650462609184 -2.753906796563193 -6.3723913529996015 0 0 0
213 1 -10.72077138014752 -12.107950301448444 -4.374960376018324 0 0 0
75 1 -12.323473888135748 -10.55382264090157 -5.556163380537285 0 0 0
200 1 -5.7726060327640605 -0.6595027423975974 -2.7972826998510936 0 0 0
215 1 -7.938091927827048 -11.993926313648716 -4.4083477047117885 0 0 0
73 1 -9.572084655659552 -10.438121309848531 -5.593919224835032 0 0 0
214 1 -9.456337852978713 -10.955223938715646 -2.8415902616228923 0 0 0
217 1 -5.119012721868769 -11.74436428191137 -4.677777601463088 0 0 0
210 1 -3.695133589049451 -13.477053343091232 -3.5664162403620576 0 0 0
218 1 -3.631067880939849 -10.652169778570492 -3.1976916966752995 0 0 0
208 1 -6.413248589437896 -13.664237094271334 -3.343979275419837 0 0 0
219 1 -2.2377347590003254 -11.681655872249264 -4.879655071366965 0 0 0
20 1 -0.7305270974529243 -13.191620944628953 -3.664512547086911 0 0 0
226 1 -0.724972111634111 -10.492458625935646 -3.286323549140242 0 0 0
66 1 -12.4026724518839 -7.791527745210105 -5.157336856769966 0 0 0
228 1 -10.948668146627536 -9.39245985955354 -3.9501572236554363 0 0 0
64 1 -9.440616486066233 -7.505654804973736 -5.253416210424284 0 0 0
230 1 -8.093332792850404 -9.168631806250982 -4.12974471863542 0 0 0
62 1 -6.833386559769172 -7.38053635384379 -5.413033788523112 0 0 0
71 1 -6.656481600055698 -10.147990743760966 -5.753084471390514 0 0 0
232 1 -5.179411345012808 -9.030843548642327 -4.145002838220416 0 0 0
60 1 -3.891434852635829 -7.3464514394412 -5.50689350842457 0 0 0
234 1 -2.471392369698936 -8.75511128369306 -4.302563432246645 0 0 0
58 1 -1.0241567457620757 -6.940261767638012 -5.545383888324107 0 0 0
957 1 -11.06851280075079 -6.601194253751222 -3.551945110175634 1 0 0
57 1 -12.650958582445393 -4.965024082062554 -4.606871357244303 0 0 0
202 1 -11.200092856446856 -3.860766264996448 -3.0564901606057067 0 0 0
56 1 -9.713817673009093 -4.867677318754049 -4.707264607069323 0 0 0
225 1 -8.193083999227706 -6.436707817816442 -3.654911365985498 0 0 0
55 1 -8.530805846798554 -3.502548648786817 -3.21262335656586 0 0 0
53 1 -6.963533850301256 -4.670068238388456 -4.821991039106164 0 0 0
223 1 -5.354374344995184 -6.189535893226556 -3.78113176096978 0 0 0
51 1 -4.0955437329975855 -4.456618374065924 -4.946209363868583 0 0 0
221 1 -2.5003583729019176 -6.0457770692033135 -3.892572588959146 0 0 0
49 1 -1.2738444840092011 -4.237120935351907 -5.228213299226891 0 0 0
93 1 -11.409376300982846 -0.47940078840229106 -5.421336991153339 0 0 0
203 1 -12.878850893199614 -2.088691594890843 -4.097603380709874 0 0 0
91 1 -8.598160378952336 -0.2614770210464048 -5.424871370093982 0 0 0
47 1 -10.05096439011394 -2.0484965485084334 -4.216320392772872 0 0 0
44 1 -7.1282823806664135 -1.7971110657258542 -4.433139908102138 0 0 0
199 1 -5.591114599663207 -3.403273862588252 -3.261536861864533 0 0 0
42 1 -4.207904140097364 -1.7313753931686282 -4.61457266001681 0 0 0
508 1 -2.7849607549367796 -0.4059923319358436 -3.0431686373776135 0 0 0
197 1 -2.644506854947304 -3.2327585016983207 -3.4205236323777974 0 0 0
40 1 -1.263720377756206 -1.420538600343633 -4.630918165742811 0 0 0
212 1 -12.300397020953527 -11.256917493781375 -2.744813912804158 0 0 0
205 1 -10.856724788102198 -12.753706955215398 -1.5295207065484675 0 0 0
207 1 -7.979581423829396 -12.432986266623637 -1.9073580253244042 0 0 0
46 1 -8.563288007433151 -0.8739107380346844 -2.702564701690811 0 0 0
36 1 -6.591698080670136 -11.24781042110003 -0.1670389767479321 0 0 0
216 1 -6.554350966437047 -10.734405871715314 -2.901836096233959 0 0 0
243 1 -3.543275835955713 -11.094586587650642 -0.11922451032689807 0 0 0
209 1 -4.848788226852172 -12.362842880114695 -1.7408304222785738 0 0 0
211 1 -1.9885861053622946 -12.2664901417786 -2.020137675257109 0 0 0
969 1 -0.7673361844369495 -10.992709241274024 -0.3955761422642716 0 0 0
34 1 -11.039988806312715 -9.886171879445577 -1.063579253079288 0 0 0
364 1 -12.42883965344582 -8.413705343122302 -2.2484647878004775 0 0 0
30 1 -11.004570116569043 -7.065373106917424 -0.6454970764555821 0 0 0
229 1 -9.569827988404246 -8.19921433449148 -2.4262381817951724 0 0 0
231 1 -8.0891232157555 -9.75096373946961 -1.1848953503354522 0 0 0
29 1 -8.097926477606086 -7.047832049395116 -0.9226387422162876 0 0 0
28 1 -6.709797999595853 -8.100375140828127 -2.553530477600436 0 0 0
233 1 -3.893412881487155 -7.789248967238685 -2.5777059768078097 0 0 0
32 1 -5.116217524253527 -9.660894260308414 -1.3886881425542583 0 0 0
23 1 -0.9315358835361796 -7.57303603676398 -2.819634338062558 0 0 0
235 1 -2.2522320342683724 -9.469890342545295 -1.5743020253834121 0 0 0
84 1 -13.627624359471966 -12.350108625745216 -4.233934044454228 0 0 0
362 1 -11.17341362013904 -4.372093866858936 -0.19029833959101872 0 0 0
227 1 -12.577771217578379 -5.545617495602363 -1.8108351822959285 0 0 0
238 1 -8.377466578107873 -4.139743121347637 -0.36086448378416947 0 0 0
237 1 -9.672805993681509 -5.329504746565105 -1.9731559181297964 0 0 0
224 1 -6.929996088634541 -5.119473535563964 -2.13090454032195 0 0 0
467 1 -5.2503434027712945 -6.840955268208819 -0.9871203320227391 0 0 0
222 1 -3.9541299026096492 -4.998248807855672 -2.1645925211830797 0 0 0
26 1 -5.4810424067444945 -4.023794933037225 -0.3954675951449591 0 0 0
25 1 -2.572185939727019 -3.822563233700878 -0.5818499023206058 0 0 0
27 1 -2.408069258516056 -6.65264264618813 -1.0378181806911684 0 0 0
220 1 -1.2001275503791344 -4.890016094062705 -2.329417909853815 0 0 0
506 1 -4.015076719140243 -2.0873856084248725 -1.7102378482971936 0 0 0
48 1 -11.350384342205269 -0.9934295812153486 -2.5155248764213116 0 0 0
204 1 -12.640401136066206 -2.717125759698776 -1.4323463385821356 0 0 0
403 1 -9.850658310538947 -2.6076329184224143 -1.5082932391046278 0 0 0
267 1 -2.681088400361377 -0.9602904805107393 -0.138029137119986 0 0 0
37 1 -9.462682859627186 -11.497992303267853 -0.029063237361107497 0 0 0
366 1 -10.850420812331894 -13.373804109720039 1.2876082696168183 0 0 0
38 1 -12.372895084013358 -11.783622358051517 0.14960564195087755 0 0 0
412 1 -10.98116410650807 -10.493364877159681 1.721518660643932 0 0 0
434 1 -9.303051294846465 -13.605670106178234 11.374630744179031 0 0 0
413 1 -7.876580545283094 -13.030545503073007 1.0823869397077779 0 0 0
414 1 -9.473477216019013 -12.061631648771348 2.7027203483512015 0 0 0
411 1 -8.032970795509225 -10.290847146821914 1.5909776951757078 0 0 0
35 1 -5.0578600398342815 -12.852009417036557 0.9797602852969227 0 0 0
259 1 -3.586852540893158 -11.67056250554913 2.637544001899469 0 0 0
463 1 -6.45238517920373 -11.85422459477027 2.696563167777393 0 0 0
39 1 -2.1432318326046573 -12.68905031659083 0.8739045242021692 0 0 0
239 1 -0.7164435147298729 -11.58831996429076 2.4782107878751365 0 0 0
410 1 -11.030408999714993 -7.644553906778255 2.1629339557379286 0 0 0
415 1 -12.465522912861012 -8.81375889042295 0.5986942180639918 0 0 0
460 1 -8.211597305405547 -7.389918577089669 2.115180027768263 0 0 0
33 1 -9.628888491382236 -8.746589691632831 0.5166170351495776 0 0 0
469 1 -5.241903341393579 -10.110689264610116 1.4675882127793276 0 0 0
470 1 -6.64694508617342 -8.418901122731842 0.38458861481804973 0 0 0
468 1 -5.306978153720097 -7.254873483715452 1.844134308335251 0 0 0
31 1 -3.7354569038222536 -8.262675682577592 0.2471965740505535 0 0 0
261 1 -2.2197949635453416 -9.903777922900915 1.3345797458590187 0 0 0
263 1 -2.332373394171338 -7.022048778452682 1.8233450500210626 0 0 0
1398 1 -0.9399191860082095 -8.64734261360064 2.9901787205854813 0 0 0
363 1 -12.584976248036952 -6.217374026882989 1.1777053129908435 0 0 0
405 1 -11.291168256248522 -4.949618941881187 2.6839715677316196 0 0 0
407 1 -9.63395338312384 -5.903990440603817 0.9045537750272263 0 0 0
458 1 -8.293317257779028 -4.764300534001311 2.4073302499167806 0 0 0
466 1 -6.855123371653124 -5.855951385054913 0.7161809787506268 0 0 0
265 1 -3.931832692216757 -5.63545254416711 0.6660686344807853 0 0 0
264 1 -5.593156111600711 -4.540129996862921 2.302339489432507 0 0 0
241 1 -1.1112363939824803 -5.339727055587641 0.5198099248174852 0 0 0
285 1 -2.554706330442894 -4.296619410443869 2.154623228890566 0 0 0
359 1 -12.783312513188978 -3.440642683579801 1.3844406100488786 0 0 0
872 1 -12.91266345441565 -0.42491444597968453 1.9455540311282729 0 0 0
357 1 -11.432194677759624 -1.6101403042224014 0.23944475992566083 0 0 0
465 1 -8.572623756650493 -1.4738676461569575 0.21503884519032468 0 0 0
392 1 -9.889766956905799 -0.42099631651171343 1.8101383586713293 0 0 0
404 1 -9.85267770052323 -3.1185781479225216 1.3844783993653724 0 0 0
456 1 -8.39309449063099 -1.9819872658780788 3.014206103979033 0 0 0
1635 1 -12.888203567795241 -0.09663665569623525 13.88663255181711 1 0 0
719 1 -7.957512242446547 -13.54302538681631 3.9419467613971992 0 1 0
457 1 -7.019520078221203 -2.9489486670424228 1.2729499002474896 0 0 0
266 1 -4.038382519238814 -2.644836194195019 1.062934476724891 0 0 0
295 1 -5.633573518467671 -1.8235400626710856 2.825301238599133 0 0 0
1866 1 -1.289717574851057 -2.4556527691326178 0.9694233441626476 0 0 0
286 1 -2.6488365425098603 -1.5444517589861206 2.6435025209614285 0 0 0
361 1 -12.348122464956148 -12.417260052001946 3.0469416206188686 0 0 0
400 1 -11.027308670208726 -11.077751501249384 4.546018685532063 0 0 0
281 1 -2.7491524399374327 -0.9939665398323552 14.542342812614175 0 0 0
462 1 -8.101417998397292 -10.816314419385478 4.408460547420786 0 0 0
464 1 -9.370211297029552 -12.56625054227641 5.632289325981452 0 0 0
287 1 -6.533566233135194 -12.266292114089737 5.460238882298404 0 0 0
260 1 -5.1735754392287205 -10.452498393861704 4.31841234430402 0 0 0
288 1 -3.54223798502648 -12.180756454143886 5.486568838861528 0 0 0
258 1 -5.065336454947785 -13.357750362647614 3.9873072449024196 0 0 0
1397 1 -0.7175245710754865 -12.01321044057193 5.347079216144371 0 0 0
282 1 -2.0835320982066214 -13.25996175521289 3.767309854001441 0 0 0
283 1 -2.226143052993912 -10.497321077764884 4.285758608877428 0 0 0
356 1 -12.488522309045823 -9.435054995958652 3.4293671047173593 0 0 0
388 1 -11.01157606739334 -8.268846533179282 5.074916236089793 0 0 0
398 1 -9.571600325238022 -9.270495079867814 3.2176681362782364 0 0 0
451 1 -8.148230844514721 -8.01800102626465 4.9257970630385355 0 0 0
262 1 -3.7080530930723956 -8.779669138536622 2.995831916833877 0 0 0
461 1 -6.751353970793608 -8.981050492748928 3.1343429913832406 0 0 0
291 1 -5.276469186809999 -7.7730738482682025 4.694669585692806 0 0 0
284 1 -2.431714667730825 -7.688353947899545 4.67962062681279 0 0 0
300 1 -0.8085541589152037 -9.090663312987814 5.682938575276987 0 0 0
397 1 -12.508801218110536 -6.7153732411911635 3.920149641365084 0 0 0
386 1 -11.171197968990223 -5.523681043806924 5.533299754318216 0 0 0
395 1 -12.643687160142267 -3.9255164449678652 4.355383552224948 0 0 0
396 1 -9.684710031277088 -6.390201331531345 3.8398234865849137 0 0 0
449 1 -8.348484456742097 -5.179250842344958 5.2890888024758045 0 0 0
394 1 -9.801768567331047 -3.6558580667324883 4.128526047446881 0 0 0
447 1 -6.9419088921189385 -3.6752907104622246 4.121723783184942 0 0 0
459 1 -6.794490755550964 -6.259199829681155 3.6436199481703806 0 0 0
293 1 -5.405204193060296 -4.995204406776184 5.263721973889881 0 0 0
292 1 -3.8828833134925578 -5.966492314841223 3.430806390501063 0 0 0
302 1 -0.929967159721615 -5.852081034444225 3.3957048293014314 0 0 0
1399 1 -2.497567959431418 -4.839280528649958 5.0874824697880445 0 0 0
354 1 -11.381210300458719 -2.188725079287048 2.9569851644086764 0 0 0
344 1 -12.774540012125213 -1.0384750329559296 4.674723160630871 0 0 0
446 1 -10.01441255405527 -0.9196789997062886 4.602126731891152 0 0 0
445 1 -7.116823891969744 -0.7647284998691717 4.5698175417211555 0 0 0
437 1 -8.394493362132375 -2.4836267349427565 5.847553615094144 0 0 0
294 1 -4.057661032310932 -3.2143764764071605 3.9940992546989076 0 0 0
296 1 -4.228604950086204 -0.5204338786258695 4.3760872903874155 0 0 0
323 1 -5.601540255409885 -2.387537654997562 5.757070564796889 0 0 0
304 1 -1.2592609063501428 -3.1638462273905112 3.8014022862070167 0 0 0
305 1 -2.621741615980852 -1.943954573611597 5.5590892631375315 0 0 0
306 1 -1.2814204442696262 -0.3317216460199397 4.416386028804682 0 0 0
391 1 -12.30117373362993 -12.731286069329833 5.813842873990405 0 0 0
454 1 -10.892713714481316 -11.520499592903942 7.367898846914008 0 0 0
453 1 -8.044667957454198 -11.3887021076747 7.232613121226715 0 0 0
787 1 -9.25864605273673 -13.135085878861481 8.664205102422704 0 1 0
317 1 -5.106337823135313 -11.142010900879065 7.130874968244312 0 0 0
794 1 -6.397027998284481 -13.026587379690532 8.390500194638298 0 1 0
309 1 -3.677117963359972 -12.683834908130923 8.372277062691323 0 0 0
298 1 -2.217365684020601 -10.95335763650448 7.063251625358122 0 0 0
248 1 -0.5838142197718703 -12.524044660628594 8.08828196795845 0 0 0
399 1 -12.510546610260102 -10.07308185856806 6.234900497205464 0 0 0
442 1 -10.95268908237352 -8.807566005596335 7.791589072707611 0 0 0
1262 1 -12.549593726912882 -7.26762716593525 6.764291593159433 1 0 0
452 1 -9.699403919432743 -9.861667821260687 6.163482144669976 0 0 0
318 1 -8.236781687338262 -8.625442532317148 7.692455320307753 0 0 0
428 1 -9.66554122135777 -6.927565132934463 6.667929612245105 0 0 0
289 1 -6.594413177539359 -9.606609241301665 6.110489087246913 0 0 0
290 1 -3.614501665121429 -9.373546803121544 5.934502055552196 0 0 0
319 1 -5.253171347056666 -8.388250587978378 7.5940926516301435 0 0 0
310 1 -2.245301785031117 -8.307356860977606 7.547202271933697 0 0 0
249 1 -0.8614028586766214 -9.843158186038348 8.662553835073643 0 0 0
440 1 -11.21877816950968 -6.043417147276563 8.385635376237266 0 0 0
1261 1 -12.762578881509613 -4.588830124824934 7.2141160056964555 1 0 0
448 1 -9.85019952332944 -4.202794418148136 6.915158335688558 0 0 0
450 1 -8.295648951197652 -5.63081571641602 8.251571939316458 0 0 0
322 1 -6.94130130152374 -4.144865662233256 6.994278617097644 0 0 0
320 1 -6.74489944029246 -6.88711806692162 6.531503945319399 0 0 0
301 1 -3.9246082445807335 -6.665909372973577 6.311260757241529 0 0 0
321 1 -5.336059751045626 -5.695712591624769 8.092715105177495 0 0 0
313 1 -4.20576502371765 -3.9443875537038924 7.0685161421051905 0 0 0
303 1 -1.0604062491827282 -6.4384133534357995 6.1988052824417625 0 0 0
312 1 -2.464938385217531 -5.519388018349549 7.920498181526485 0 0 0
1386 1 -1.1297994197733345 -3.803319193690216 6.705343761856527 0 0 0
384 1 -11.394359860589052 -2.6095524200949693 5.9992157511903255 0 0 0
368 1 -12.781470331421444 -1.6707980082117917 7.5823236235680564 0 0 0
438 1 -11.30932558653765 -3.2605610365710262 8.708584983501057 0 0 0
436 1 -9.967829255146839 -1.4113906940539085 7.364138706945502 0 0 0
324 1 -7.018351610227898 -1.2960078520465785 7.400442360872999 0 0 0
351 1 -8.481590881521047 -2.966603198576694 8.612176433192692 0 0 0
315 1 -4.209052222195217 -1.1330393593895973 7.363602926268404 0 0 0
352 1 -5.55467861417147 -2.894293820630356 8.606659523181603 0 0 0
252 1 -1.4155546254467168 -0.8156428166968919 7.2026602980617955 0 0 0
314 1 -2.658926204639016 -2.6526863857467884 8.446229934617909 0 0 0
919 1 -12.085272109493037 -13.348287682241068 8.664810056410273 0 1 0
911 1 -10.751335846974039 -12.038178551451917 10.277316016810891 0 1 0
390 1 -12.295344051007941 -10.568938734962192 9.276994716340477 0 0 0
316 1 -7.839851836108053 -11.807577772679304 10.055837923552568 0 0 0
443 1 -9.453381387590944 -10.323513945739968 9.127367788374832 0 0 0
307 1 -5.130286628614005 -11.656949267996785 9.979668383222092 0 0 0
253 1 -3.5466244320474676 -13.362427141275054 11.270241861202146 0 0 0
329 1 -3.653574315008388 -10.622985963548324 11.60783592093229 0 0 0
778 1 -6.492582716306154 -13.583966521089271 11.470928090967915 0 1 0
860 1 -0.6672627365543047 -13.171866560054273 11.01810770913544 0 1 0
308 1 -2.0144150756373733 -11.670925957524716 9.888452055591019 0 0 0
254 1 -0.9040697110167226 -10.302064026127937 11.376899758455044 0 0 0
345 1 -10.961002923630637 -9.30874169657435 10.882852426840087 0 0 0
431 1 -12.443431026918718 -7.833123721181084 9.589925006113306 0 0 0
441 1 -9.613234410075616 -7.587763375690555 9.494027314677398 0 0 0
347 1 -8.02037644020071 -9.199538906941278 10.62963269978034 0 0 0
299 1 -3.800760609611215 -9.998030087242453 8.711085120429866 0 0 0
346 1 -6.645912700811345 -10.099575647899485 8.671889936800648 0 0 0
348 1 -6.883421679017413 -7.347206830627479 9.378419531514373 0 0 0
330 1 -5.271360939031435 -8.984085574842386 10.467918427583077 0 0 0
311 1 -3.820509040949826 -7.1748748746800635 9.108292633683574 0 0 0
255 1 -2.4504167371622785 -8.866047531213646 10.364247211805564 0 0 0
250 1 -0.9970413391760644 -7.143547981075052 9.070768062784735 0 0 0
370 1 -11.015567954788924 -6.554846804331381 11.138694531797375 0 0 0
430 1 -12.558183808144951 -4.84196863036405 10.268829123261801 0 0 0
427 1 -11.302733977184573 -3.685923997501561 11.72463913509853 0 0 0
349 1 -8.386730071462154 -6.343201161575553 11.001056989022112 0 0 0
439 1 -9.72395654987881 -4.708638840782683 9.885884325958815 0 0 0
379 1 -8.388595427034511 -3.551413772665839 11.453463982481038 0 0 0
350 1 -6.800033345001928 -4.519595837499004 9.763664160418086 0 0 0
333 1 -4.020757319453903 -4.37677036765254 9.68348042355394 0 0 0
332 1 -5.370008509845897 -6.184503650614763 11.025136063975149 0 0 0
257 1 -2.4744967883737026 -6.004620304595647 10.738590459154596 0 0 0
269 1 -1.204804580663847 -4.207730295598285 9.63992774488712 0 0 0
425 1 -11.42164326499043 -0.38823238180149744 9.17961772747581 0 0 0
418 1 -12.799633405932148 -2.1824550980019293 10.450205094415486 0 0 0
353 1 -8.488246487728727 -0.3054952997069975 9.066482131401722 0 0 0
426 1 -10.036311435928486 -1.9317416612346427 10.328753351259907 0 0 0
380 1 -6.99391673378265 -1.8634731238910138 10.340066117943783 0 0 0
455 1 -7.143113519869447 -0.15284583581304645 1.68480110232551 0 0 0
334 1 -5.419574300424115 -3.4491867801256078 11.34714230544907 0 0 0
335 1 -4.188015854959472 -1.6719087725606077 10.160725064398063 0 0 0
280 1 -2.7361781160850693 -0.3835805492187063 11.647555161912281 0 0 0
278 1 -2.6925898188221105 -3.160449826220244 11.384437651627719 0 0 0
270 1 -1.2824021443602422 -1.376226249413392 9.968651311904418 0 0 0
433 1 -12.378502969008117 -11.118231787896775 11.971095071166685 0 0 0
424 1 -10.76845060330415 -12.655797609697759 13.032284537669026 0 0 0
279 1 -1.2410887144331753 -1.9805327829012178 12.811264940450583 0 0 0
444 1 -9.323778264656227 -10.9175101223897 11.87709564538183 0 0 0
373 1 -7.9413208888954365 -12.471796908035289 13.069911054425146 0 0 0
372 1 -6.572180015276322 -11.24137573237537 14.532579919494944 0 0 0
374 1 -6.491833009312818 -10.820979831676429 11.75754927558196 0 0 0
272 1 -3.552094764483286 -11.129629566360036 14.472453091536073 0 0 0
328 1 -5.080902780141836 -12.34119054216484 12.830828533451042 0 0 0
1339 1 -0.7658452179267776 -10.916458381409516 14.46543233943259 0 0 0
857 1 -2.0748282926518176 -12.024075241198958 12.749374754771724 0 1 0
432 1 -11.016446078047913 -9.88457419373177 13.52679900031792 0 0 0
422 1 -12.52020921260088 -8.34290272483663 12.340799183971006 0 0 0
421 1 -11.053883778619033 -7.257971911807389 13.998551491714382 0 0 0
191 1 -8.033870220916793 -9.666913939447294 13.523987845423703 0 0 -1
339 1 -9.47315460778342 -8.138506130472301 12.220835265940488 0 0 0
376 1 -6.8749203160841 -7.862717645472275 12.174787513844185 0 0 0
331 1 -3.900354744050338 -7.913830375212152 12.082896466623803 0 0 0
337 1 -5.11556022597088 -9.591017382594998 13.268598543760747 0 0 0
275 1 -1.0427721049145422 -7.467169672301865 11.922923214141138 0 0 0
273 1 -2.314550091169073 -9.434869130269739 13.195020518114818 0 0 0
192 1 -9.404154862904136 -11.463332528552561 14.513554847715751 0 0 -1
429 1 -12.569452328713428 -5.6462865948612215 12.929129665126437 0 0 0
377 1 -8.279598485899097 -6.86435772829108 13.838269343100572 0 0 0
406 1 -8.291748052654786 -4.060675969875552 14.352062375002374 0 0 0
375 1 -9.718261883102848 -5.253331675545061 12.750654567795513 0 0 0
378 1 -6.8702868962924155 -5.093675700645591 12.561727841989748 0 0 0
338 1 -5.3406716706122594 -6.733000333273309 13.70204671546327 0 0 0
276 1 -3.973689165083325 -4.985580456661079 12.41502158971488 0 0 0
340 1 -5.286889419874036 -3.8783531851956994 14.210519598659543 0 0 0