LAMMPS data file via write_data, version 2 Aug 2023, timestep = 0, units = metal

1866 atoms
3 atom types

-14.075512376087012 14.075512376087012 xlo xhi
-14.21656414962397 14.21656414962397 ylo yhi
-13.792214899872697 13.792214899872697 zlo zhi

Masses

1 55.847
2 1.008
3 1.008

Atoms # atomic

935 1 -11.930998773409092 -12.769732758082965 -11.884820482090767 0 0 0
936 1 -10.82883135907112 -10.712381444313042 -13.325356424660592 0 0 0
964 1 -12.805137382886 -10.3932876998557 -11.54395351703259 0 0 0
970 1 -10.09286243568237 -11.435395470437324 -11.032816610670713 0 0 0
963 1 -11.710433228136115 -11.16090121172371 -9.398518248523029 0 0 0
1042 1 -9.922188501825511 -9.672445376484479 -8.568621240246259 0 0 0
969 1 -9.147958851730873 -12.06535995154541 -8.664813119374035 0 0 0
937 1 -9.420492242229104 -13.767414559065415 -11.043617506495615 0 0 0
1632 1 -11.27447499732385 -13.592665659762053 -9.518104171368757 0 1 0
938 1 -10.01413207583335 -13.008791403173372 -13.470489443563798 0 0 0
965 1 -10.798924554230492 -9.035830179083803 -10.822498988623378 0 0 0
972 1 -9.036165682125816 -9.164291656132258 -12.491230171354529 0 0 0
1031 1 -12.598340401366073 -8.885768289970308 -9.194045708895093 0 0 0
934 1 -13.80942238110374 -12.68267854037996 -10.200881382997443 0 0 0
1459 1 -13.836137076593095 14.206837367288887 -12.609609826409045 0 0 0
939 1 -8.25127245595946 -11.521340000698022 -12.549956705403666 0 0 0
971 1 -8.193476593923595 -9.981093114917229 -10.27624102906496 0 0 0
941 1 -5.630059724149406 -12.513975284405648 -12.052818384545867 0 0 0
976 1 -7.412304321077612 -12.357276868669041 -10.43349778857917 0 0 0
978 1 -6.267988325915656 -10.132726235920742 -11.96087995553657 0 0 0
984 1 -3.5613864197386107 -11.15728290716513 -11.22543856804305 0 0 0
977 1 -5.494335277109776 -10.986845571944396 -9.71133479975284 0 0 0
982 1 -4.908853219340937 -13.461251167425726 -9.820757583454794 0 0 0
1067 1 -3.5272933757585907 -9.536688251963774 -8.863384445485822 0 0 0
942 1 -4.426978981033148 -10.389259797000612 -13.363511995665746 0 0 0
1504 1 -3.7372015943673738 -12.831853013816604 -13.447085513816798 0 1 0
940 1 -7.510140585608015 -14.038953375359576 -12.777178210311513 0 0 0
979 1 -4.371224058813008 -8.601235725656771 -11.017724125156953 0 0 0
944 1 -3.0728799081809726 -13.469654242402408 -11.36382954940984 0 0 0
983 1 -2.795027751621852 -11.924319282928519 -9.039209124097013 0 0 0
1056 1 -6.191044786982521 -8.626355768002766 -9.558587180909287 0 0 0
945 1 0.08777594298693359 -9.876595898249928 -11.981226801949651 0 0 0
985 1 -1.793083162910147 -9.66602386580206 -10.362358403542899 0 0 0
990 1 -1.010572907029145 -12.029061180756262 -10.527313395330152 0 0 0
947 1 0.7717118725918422 -12.175950371380416 -12.137637297303776 0 0 0
992 1 0.8212174434066952 -10.632817477744982 -9.80942770200319 0 0 0
996 1 1.490683414615999 -13.087890316970775 -9.896920652324809 0 0 0
946 1 -1.1800356018347102 -13.589337095220928 -12.99887346932158 0 0 0
74 1 -1.7825673390579002 -11.29343436416894 -12.892386294096497 0 0 1
986 1 -2.4353105093083247 -8.930427700465282 -12.668560120825559 0 0 0
948 1 1.947275783388836 -10.002647780874938 -13.594822339586933 0 0 0
993 1 1.9738023209600541 -8.385317132187264 -11.330667157729646 0 0 0
989 1 -0.3331682791417965 -12.87004768859743 -8.353620040742374 0 0 0
26 1 2.6731971561804393 -12.484514201010253 -13.66065127221589 0 0 1
998 1 2.7450366374835724 -11.016775353722752 -11.272017955194467 0 0 0
1092 1 2.796480691765325 -9.392408400593865 -9.043802224971543 0 0 0
950 1 3.377228304710332 -13.30719412666617 -11.444275265259195 0 0 0
951 1 4.515297417285794 -11.145117681254806 -12.878605117363364 0 0 0
952 1 5.238620845620137 -13.500585535243472 -12.968746818774504 0 0 0
999 1 4.562274825568277 -9.46676679641267 -10.527372881097959 0 0 0
1004 1 5.225253650435917 -11.87997136012821 -10.674886450487564 0 0 0
1006 1 6.521053297174657 -9.661198396350855 -12.078387929880442 0 0 0
953 1 7.088662145534514 -12.101441744337713 -12.312701726509601 0 0 0
997 1 3.4557069839789456 -11.70586801352222 -9.018917624269761 0 0 0
1005 1 7.262499442014899 -10.475302868491603 -9.865465320579258 0 0 0
1011 1 7.882456623074049 -12.828117577940688 -10.064204632547384 0 0 0
1003 1 6.178012822614008 -12.660509882328848 -8.459937118890494 0 0 0
949 1 4.07182336574839 -13.950094795338417 -9.126006818820874 0 0 0
1104 1 5.341835186841806 -10.255825682043639 -8.35072192271521 0 0 0
1000 1 3.7908066501893742 -8.711993298828684 -12.692694626118193 0 0 0
954 1 8.382616034885288 -9.928023284832715 -13.752227598650062 0 0 0
956 1 11.898661382497828 -11.60163293428771 -11.103063312738014 0 0 0
1013 1 8.986207443356772 -10.749603078079783 -11.598849255748888 0 0 0
1014 1 10.878165608731678 -9.241642349827412 -10.835372727996285 0 0 0
1019 1 12.748212953814331 -9.529401668322956 -12.318145768550863 0 0 0
1012 1 9.858365414015697 -11.441229368300473 -9.316382993328185 0 0 0
1 1 11.684416866565051 -13.162306876582115 -13.166965263211432 0 0 1
1117 1 9.197281005033453 -9.077309750450567 -9.190620446451277 0 0 0
957 1 10.558917492874315 -13.836715313458944 -9.424380585020701 0 0 0
9 1 10.817173706866292 -10.853277662096872 -13.280875492258511 0 0 1
955 1 9.794021675677076 -13.095291937925474 -11.534738291819076 0 0 0
1126 1 12.546212662018547 -12.399489450324271 -8.533237767471974 0 0 0
958 1 11.854554262571817 -9.975715380161867 -8.731084649900083 -1 0 0
830 1 13.707638395473662 -11.86990148385446 -12.503198812155174 -1 1 1
1579 1 12.403499436775284 -13.991079166750145 -11.041655115408435 0 1 0
966 1 -11.479585393603873 -8.349173218985129 -12.99480584039838 0 0 0
959 1 -13.374214290312045 -8.036703689893539 -11.609743078565806 0 0 0
960 1 -12.197756844173782 -5.845439951887357 -13.019621162060718 0 0 0
1024 1 -12.146005976268754 -4.376586555386529 -10.710596592846214 0 0 0
1033 1 -11.428929326392925 -6.663484883072385 -10.772174762928532 0 0 0
967 1 -9.615499555158546 -6.882099701380683 -12.36086584145386 0 0 0
1034 1 -9.55037390757255 -5.238960738843478 -9.961320367812345 0 0 0
1035 1 -10.29745189292461 -4.494629506194459 -12.338087813985796 0 0 0
1022 1 -13.2477577500556 -6.561605516464882 -9.131254106692822 0 0 0
311 1 -12.97161956479879 -3.6063726816320987 -12.842654179727202 0 0 1
1044 1 -8.772093382573821 -7.603417879079546 -10.197126479480414 0 0 0
1032 1 -10.53247194753956 -7.307652126774019 -8.494100463302782 0 0 0
1149 1 -11.376917317034541 -4.974118272898069 -8.353129312336232 0 0 0
1023 1 -14.013160116609122 -5.742794317388203 -11.430499328178552 0 0 0
980 1 -5.0997730511957045 -7.893404156085346 -13.267841296913065 0 0 0
973 1 -6.9492520540199045 -7.863674852018878 -11.778704911654568 0 0 0
974 1 -5.890037611337112 -5.619149314017029 -13.097548353342145 0 0 0
1046 1 -7.653616261572314 -5.394640320266019 -11.61229026621723 0 0 0
1047 1 -5.675684429618183 -3.9818201716821253 -10.817816802062405 0 0 0
1058 1 -5.009992313596811 -6.338126401890694 -11.004689551816597 0 0 0
1060 1 -3.9831342017124793 -4.311204400134175 -12.451132516089277 0 0 0
1045 1 -6.8642155160457285 -6.247771389182373 -9.406339694470121 0 0 0
1167 1 -7.643789015684228 -3.9380231094821116 -9.265182786361182 0 0 0
1057 1 -4.278073794884143 -7.130157956120827 -8.622556785105981 0 0 0
1183 1 -4.855098620808274 -4.81154191541388 -8.520323308028154 0 0 0
981 1 -3.106532160267511 -6.562586960068891 -12.602565484276633 0 0 0
129 1 -6.577575266414478 -3.287396609523169 -12.920154385358163 0 0 1
1059 1 -3.13135216873415 -5.019374925023508 -10.139216292930703 0 0 0
1036 1 -8.37990644259001 -3.051467741407482 -11.430699587027526 0 0 0
1048 1 -8.463094327540531 -4.752662450287264 13.72130132849517 0 0 -1
1081 1 0.1531394333637035 -8.340780885440147 -9.598550698614476 0 0 0
987 1 -0.5230616602355056 -7.563999484095664 -11.968157971785043 0 0 0
1069 1 -2.4504117431210997 -7.289810082821952 -10.40989622553166 0 0 0
1071 1 -1.2850670336963823 -5.105279429135093 -11.795548045372499 0 0 0
988 1 0.6884788896842782 -5.376118834983975 -13.291858436433852 0 0 0
1072 1 0.5987851516246927 -3.7707109182840295 -10.922408506977842 0 0 0
1083 1 1.345425568380854 -6.058767631801906 -11.04163585931608 0 0 0
1070 1 -0.5351467590420125 -5.945829232658953 -9.605396938969857 0 0 0
1082 1 2.0992998038564394 -6.937351085946631 -8.848552060138687 0 0 0
1201 1 -1.2635122363408406 -3.5944364417385444 -9.419082703838619 0 0 0
1217 1 1.3424285739002038 -4.528394714535176 -8.733382777376345 0 0 0
994 1 1.1919128242973862 -7.670174848042396 -13.515192760404751 0 0 0
1085 1 2.4330409601332335 -3.8701341680360635 -12.595819049274432 0 0 0
1073 1 -0.1659328026752469 -3.0773206354768874 -13.177123360215248 0 0 0
995 1 3.0019277201022163 -6.387181510714354 -12.813031032090732 0 0 0
1001 1 5.759499300463272 -7.302550861956968 -11.967175890377542 0 0 0
1084 1 3.200702422597267 -4.7160654463794245 -10.381345065397213 0 0 0
1094 1 3.878813980625889 -7.072044016069082 -10.49691763885225 0 0 0
1096 1 5.224073828084045 -5.0128843396897285 -11.94935485467395 0 0 0
1106 1 6.513415459800061 -8.15190382846578 -9.671905517036393 0 0 0
1095 1 5.883936998324618 -5.704335078913058 -9.597301877239737 0 0 0
1108 1 7.681815659202623 -5.94542477186174 -11.184867559257565 0 0 0
1097 1 7.034866403070957 -3.500590803150585 -11.121038081284855 0 0 0
1235 1 5.164140962092528 -3.340547060646271 -9.536793089977959 0 0 0
1251 1 7.865837856017684 -4.268423812515152 -8.859552375012434 0 0 0
1002 1 7.082574555555848 -5.038039772944723 -13.482985700120858 0 0 0
1008 1 7.62270400447342 -7.428717914975959 -13.508165545880237 0 0 0
1093 1 4.701594963374227 -7.905468761938827 -8.308189462379346 0 0 0
1015 1 10.242795420605894 -8.464449630313844 -12.97924596035896 0 0 0
1007 1 8.351445462386039 -8.318017004589716 -11.290475014321686 0 0 0
1107 1 8.521935787760338 -6.7378024450735925 -8.962259760575646 0 0 0
1009 1 9.392112474838598 -6.188295021562011 -12.809545373066225 0 0 0
1016 1 12.232857374206077 -7.076298900315846 -12.16886100991465 0 0 0
1109 1 9.726575105528148 -4.552671903002542 -10.547320162813223 0 0 0
1110 1 8.981643703720678 -3.7461609761362364 -12.653491673518072 0 0 0
1119 1 10.360694109629254 -6.845364431116553 -10.596091421558008 0 0 0
1121 1 11.40464770252768 -4.8160038714194275 -12.135310191808504 0 0 0
1120 1 12.366001342083305 -5.5765850998768 -9.781209674606595 0 0 0
1127 1 12.993712234223494 -7.973305473368086 -10.077372202257402 0 0 0
1025 1 13.41495919205775 -3.4813605157696426 -11.268669457187125 -1 0 0
1268 1 11.53183326416347 -3.1671114048624034 -9.694556174740528 0 0 0
30 1 13.35693375162257 -4.918541091455362 -13.668642111183155 0 0 1
1118 1 11.186063917500654 -7.656521094179196 -8.408491204176212 0 0 0
1266 1 10.401019689626288 -5.269812193473541 -8.288230940852337 0 0 0
1135 1 -13.92301389678256 -4.100333701865928 -9.062397520747355 0 0 0
1151 1 -10.328689797866 -2.9694715219630847 -9.918500468571551 0 0 0
1026 1 -11.128448166219576 -2.165595940492775 -12.104853141976367 0 0 0
1137 1 -12.832106396371923 -2.035606495745 -10.548432066904232 0 0 0
1129 1 -13.555609550990814 0.29490017127328016 -10.354454278790982 0 0 0
1130 1 -13.68811482739115 -1.1082433273560444 -12.70111915342589 0 0 0
1139 1 -11.56865744150163 0.16014758042011934 -11.865340774672193 0 0 0
1140 1 -9.569497066334478 1.6336290325064926 -11.080064479562166 0 0 0
1138 1 -10.879428019640784 -0.6234020977023551 -9.633698941527403 0 0 0
1310 1 -8.912979728550997 0.8777231491002446 -8.839125609987372 0 0 0
1293 1 -11.561681338139813 1.820248499280357 -9.689858073418417 0 0 0
1153 1 -9.091745311118189 -0.7237240245765282 -11.259621721383295 0 0 0
1027 1 -9.763517124972616 0.027564814451908504 -13.575550884798135 0 0 0
439 1 -10.573977888160057 2.3776197170201705 -13.300310780581086 0 0 1
1037 1 -9.082113952060094 -2.4197179365967454 -13.523660163162571 0 0 0
1136 1 -12.132083764987375 -2.6967161133306004 -8.307935230854394 0 0 0
1152 1 -8.342045656578849 -1.5178251927057058 -9.061194402806603 0 0 0
1185 1 -3.7767007773930477 -2.691400624432797 -9.957832022817062 0 0 0
1038 1 -7.276525602478203 -0.9580472372019848 -12.836781101750036 0 0 0
1049 1 -4.56589481970337 -1.832742015101669 -12.118050064769005 0 0 0
1169 1 -6.407505509528912 -1.7536778023165098 -10.56775470024163 0 0 0
1154 1 -7.125846369962583 0.6507733234336612 -10.38228511677109 0 0 0
1155 1 -7.790440197670577 1.3257790911516807 -12.820209518118299 0 0 0
1171 1 -5.367471269159777 0.5892456953988923 -11.983351792004214 0 0 0
1170 1 -4.494698265499126 -0.33418974311917715 -9.865998292056515 0 0 0
1332 1 -5.015765382052924 2.0689579913810086 -9.745242221777119 0 0 0
1172 1 -3.3140909152080518 1.943367743453873 -11.400713146460504 0 0 0
1168 1 -5.778090134045302 -2.5632105902242177 -8.353316744151329 0 0 0
1050 1 -3.494230096315391 0.331104277243627 -13.733451263336585 0 0 0
1330 1 -6.338525745115495 -0.18372816321703667 -8.321259383638496 0 0 0
1173 1 -4.105208027927265 2.6674613824891438 -13.466035548713236 0 0 0
1061 1 -2.0804359233399943 -2.878551538381016 -11.671895959867774 0 0 0
1187 1 -2.686099621386706 -0.39462805816015845 -11.56208258493683 0 0 0
1351 1 -2.6517752358831785 1.1885335839774935 -9.050710693429842 0 0 0
1063 1 -0.6966215720612592 -0.731565799543505 -13.107633278986532 0 0 0
1203 1 -0.032733283805256974 -1.3640945670801088 -10.852425709360334 0 0 0
1189 1 -1.448516086634875 1.680687549499849 -12.841392901981235 0 0 0
1188 1 -0.7588170115206534 1.0259611703518008 -10.668370532008728 0 0 0
1074 1 1.8176457403669097 -1.4655130773314067 -12.430197141446158 0 0 0
1205 1 1.1090360047734507 0.8462696814027595 -12.140084030963937 0 0 0
1186 1 -1.911337826875858 -1.1153418428995128 -9.388547029005391 0 0 0
1204 1 1.8350626025986738 0.020134946766104278 -10.0452170987769 0 0 0
1202 1 0.6587368736783521 -2.0897440734201354 -8.63344979248185 0 0 0
1373 1 1.15201062494768 2.335805573343812 -9.873134092392554 0 0 0
1371 1 -0.08393777530821112 0.2107848734161646 -8.393198304850955 0 0 0
1352 1 -0.7834134653808142 2.4667085673751608 -8.209535965981795 0 0 0
1219 1 2.5431922716931794 -2.203285153094262 -10.12637493673003 0 0 0
1098 1 6.346897539226614 -2.742887884708326 -13.35943834001927 0 0 0
1206 1 3.0543783944156218 2.202002635510457 -11.528283128885208 0 0 0
1086 1 4.433356268970222 -2.5476498689400557 -11.606195627850276 0 0 0
1087 1 5.701348323460504 -0.4445939759721895 -13.152123381176816 0 0 0
1221 1 3.812895708899795 -0.03799083660831393 -11.429343806487775 0 0 0
1237 1 6.431069399511337 -1.0656040873295964 -10.951988324945718 0 0 0
1222 1 5.752872036742918 1.2688447276569121 -10.759247837567795 0 0 0
1223 1 5.036591991051942 1.8013981416469314 -13.142313537460444 0 0 0
1239 1 7.623360902050976 0.965424413580628 -12.380382534553805 0 0 0
1220 1 4.469192160238325 -1.004822526530008 -9.272113339900862 0 0 0
1391 1 3.7875910063884604 1.3881730207649525 -9.18604271194036 0 0 0
1236 1 7.106334449974572 -1.913380548828835 -8.821289220657741 0 0 0
1411 1 6.486549550764465 0.4464237126654709 -8.475835689232806 0 0 0
1099 1 8.4170333168233 -1.3244029972594902 -12.526564683017348 0 0 0
1238 1 8.4415881212308 0.2584561398762659 -10.1056542781789 0 0 0
1413 1 7.676171321833241 2.61875986241947 -9.950295600934513 0 0 0
1111 1 10.867569218735966 -2.3774414441486176 -11.920740503949785 0 0 0
1112 1 12.670152888409799 -1.134555495427568 -11.207842353767138 0 0 0
1253 1 8.992977203397835 -2.1926573126686666 -10.268094794099058 0 0 0
1100 1 11.895462668849103 -0.22861900687092707 -13.273504819287963 0 0 0
1255 1 10.171185477605842 -0.03199139756992153 -11.639893536034828 0 0 0
1256 1 12.056851917449862 1.3059016498618625 -10.951761094654723 0 0 0
1254 1 10.808001432186085 -0.7276312225663659 -9.491372859140043 0 0 0
1432 1 10.18174496240308 1.6071339724007494 -9.134415126969625 0 0 0
1447 1 12.846866928317095 0.6218435920934837 -8.68189040853678 0 0 0
1241 1 11.328840167739681 2.2032592514925256 -13.140820057961477 0 0 0
1269 1 13.474980201701069 -1.7435963424150618 -8.952201671995201 0 0 0
1122 1 12.712108149372 -2.589852741206119 -13.519337994971517 0 0 0
1240 1 9.518496964317944 2.2745974013305954 -11.470633111404986 0 0 0
1257 1 13.918503018928991 1.2579590117498611 -12.591044579998524 0 0 0
1141 1 -12.408092445269055 2.4406220730543566 -11.681369095264618 0 0 0
1132 1 -12.959984688221457 4.998537301998862 -11.588370129687323 0 0 0
1284 1 -11.082031507764292 6.3299846033238865 -10.894701031352096 0 0 0
1295 1 -10.425631552297414 3.957085606176097 -11.041176493472179 0 0 0
1297 1 -9.054601915530654 6.133086660808818 -12.374929565748525 0 0 0
1285 1 -11.791853152251036 7.2372371222859435 -13.043780272129503 0 0 0
1282 1 -12.344426351656972 4.0147621095974735 -9.479552324914923 0 0 0
1464 1 -12.853753713149407 6.49837266084058 -9.301373713408445 0 0 0
1294 1 -9.763469530525581 3.2502930325148576 -8.751785759395377 0 0 0
422 1 -11.076129264964464 4.733839577206744 -13.181084265603925 0 0 1
1277 1 -13.671564703384055 7.185818230812519 -11.54487913292831 0 0 0
1478 1 -10.479006941311852 5.614178471182324 -8.654122730803007 0 0 0
1480 1 -9.237209015707247 7.744412566397951 -10.028052659066601 0 0 0
1465 1 -10.999584315129116 7.9539781585506795 -8.439995569503488 0 0 0
1142 1 -8.441979658471947 3.7030494748386964 -12.679200466735036 0 0 0
1296 1 -8.514218865773238 5.307387850727729 -10.100130370406486 0 0 0
1156 1 -6.0020557426008025 2.8128006884496166 -12.02791008210118 0 0 0
1312 1 -7.663665013970142 2.973286610859759 -10.33432915328476 0 0 0
1314 1 -6.663900926195311 5.085458737570882 -11.84141706931407 0 0 0
1315 1 -4.722302908270219 6.56473164055998 -10.983981119911817 0 0 0
1334 1 -4.079994592005866 4.293208650951112 -11.244075925767588 0 0 0
1316 1 -5.359408615088313 7.246991174413925 -13.261961689324973 0 0 0
1313 1 -5.866289810525069 4.429947024085454 -9.61583438685139 0 0 0
1498 1 -6.548748831148876 6.825498527589282 -9.495989874372128 0 0 0
1516 1 -3.9480855329492304 5.754288100549918 -8.73538892971458 0 0 0
1157 1 -4.855546392327888 4.927474970508765 -13.576816093612921 0 0 0
1298 1 -7.241386838927252 7.5602807264092675 -11.697440639461838 0 0 0
1333 1 -3.3173048198470845 3.469428752112247 -9.024789523120713 0 0 0
1499 1 -4.72105222880022 8.10305454175732 -8.710747806111016 0 0 0
1336 1 -2.9443165672950595 6.373209695596568 -12.629907285252564 0 0 0
1518 1 -2.80901075143605 7.860819234673766 -10.246107012070574 0 0 0
1174 1 -2.1908074221617646 3.9714067052885333 -12.809243971403916 0 0 0
1335 1 -2.060045179686721 5.585856205911 -10.44949478274586 0 0 0
1353 1 -1.4254260816197917 3.304433123347483 -10.41227986286366 0 0 0
1190 1 0.39226136992575 3.2710897368225424 -12.156562771917434 0 0 0
1355 1 -0.3014670587857129 5.492004745500736 -12.021379237918579 0 0 0
1356 1 1.6351544030560294 6.884505112089261 -11.131624434927625 0 0 0
1354 1 0.4242123657040704 4.772111388171684 -9.708194037236387 0 0 0
1536 1 -0.3137224529930407 7.066301982851268 -9.626657193564428 0 0 0
1357 1 0.9137512984057814 7.516139773106545 -13.388346869104184 0 0 0
1375 1 2.3563872169109885 4.4623989100056995 -11.373926980496435 0 0 0
1337 1 -0.9506563730208164 7.788056326065572 -11.835013003658581 0 0 0
1554 1 2.3376122861012654 5.937674304678701 -8.827442905727324 0 0 0
1191 1 1.6889240636052243 5.181769491805014 -13.640117735567529 0 0 0
1207 1 2.405752162987742 2.891405495859349 -13.786033136453195 0 0 0
1534 1 -1.3383368888958262 4.883668760807517 -8.076525406471841 0 0 0
1392 1 5.688659661922703 2.7372302742477252 -8.302990574753416 0 0 0
1208 1 4.318025292121259 4.2752911518303875 -12.842013453614868 0 0 0
1376 1 4.341062919431266 5.939394208244465 -10.455828532838387 0 0 0
1377 1 3.5210306929612116 6.675565267615326 -12.646097143845735 0 0 0
1393 1 4.994876594749286 3.5747685664114464 -10.622919256230743 0 0 0
1395 1 6.158236363085578 5.608192475168824 -12.145311313594483 0 0 0
1224 1 6.754763118160614 3.2529379912516703 -12.279677726354112 0 0 0
1374 1 2.9953742938765444 3.73831439334921 -9.055307889729868 0 0 0
1574 1 6.225617837185897 7.188912945016867 -9.731728429507923 0 0 0
1394 1 6.91786034773985 4.903566133700878 -9.827029570360573 0 0 0
1397 1 7.229604107976925 7.827776374697859 -13.52190752064019 0 0 0
1378 1 5.489159418578588 8.073529916608233 -11.941585044786047 0 0 0
1396 1 7.987931445788838 7.013416442006964 -11.36144398739845 0 0 0
1555 1 4.315109630750499 7.430566322614077 -8.110988935849697 0 0 0
1225 1 7.98358729122921 5.3849721838528914 -13.676388193839617 0 0 0
1415 1 8.684831593030825 4.588858819901581 -11.508687285272742 0 0 0
1242 1 10.613490226790741 4.638530586384256 -12.963927847109618 0 0 0
1416 1 10.744129674412441 6.0605922860669885 -10.73792833266735 0 0 0
1417 1 9.850388187413191 6.858099864358962 -12.882719231312455 0 0 0
1434 1 11.458146212736153 3.5472160207232015 -10.86030670670133 0 0 0
1258 1 13.378765193231686 3.5223194512705973 -12.28628199036352 0 0 0
1436 1 12.579868089879614 5.941320511221722 -12.254981450777846 0 0 0
1414 1 9.71273041411363 3.978141657754364 -9.312973923444327 0 0 0
1592 1 8.852479690182143 6.360612293578132 -9.034524218384501 0 0 0
1435 1 13.335005875884505 5.192938445321417 -10.063298785178299 0 0 0
1611 1 12.669002257966554 7.548320765429732 -9.771715581152819 0 0 0
1433 1 12.067843764092654 3.0724194173340997 -8.472702986698387 0 0 0
1609 1 11.416511150035685 5.476368342937558 -8.421389978131486 0 0 0
1593 1 10.704841130960805 7.62923765880705 -8.225678156665179 0 0 0
85 1 8.650096280505544 3.10055017276251 13.732488830637397 0 0 0
1281 1 13.935515429805474 2.6527347028839188 -10.140902434277267 -1 0 0
1286 1 -9.92804162016945 8.482739856849221 -12.185798412208415 0 0 0
1466 1 -11.765821638828019 8.926510461568803 -10.603955657008143 0 0 0
1279 1 -13.223517341965628 11.896074719554449 -12.739598203698309 0 0 0
1458 1 -12.431164447335906 11.200994720727103 -10.498795980631495 0 0 0
1468 1 -10.588052543161806 10.855709500710535 -12.169522150755206 0 0 0
1456 1 -13.52228746872407 8.933445332405878 -9.014001602366708 0 0 0
1467 1 -9.86706580455455 10.217449485124273 -9.879830259488095 0 0 0
581 1 -12.504548050439407 9.590954063083881 -12.918328921763148 0 0 1
1469 1 -10.519252412918032 12.548254453482194 -9.663377641721322 0 0 0
1460 1 -11.254753445201214 13.338601751401814 -12.038501343420974 0 0 0
1470 1 -9.480775365482991 12.948845050491798 -13.664474946996894 0 0 0
1624 1 -13.091726478633541 13.517637338018524 -10.447362033918257 0 0 0
1484 1 -8.760595976902803 12.228624559906255 -11.330080144966665 0 0 0
1287 1 -8.67189607642204 10.719745791108142 -13.63848562656823 0 0 0
1630 1 -11.775431627602321 10.431988727499007 -8.284273550359792 0 0 0
1300 1 -6.154011870614012 9.813418553567352 -13.190961612108923 0 0 0
1482 1 -8.012819088979388 9.863012894885241 -11.395345640343123 0 0 0
1483 1 -6.1070118953404195 11.27146257036408 -10.696480464149065 0 0 0
1500 1 -5.411296904183525 8.805369761966308 -10.864456450170461 0 0 0
1317 1 -3.7076488296578205 8.670552699431404 -12.483186082951676 0 0 0
1502 1 -4.273816638294706 11.097619606479203 -12.331219783131424 0 0 0
1481 1 -7.301317860465287 9.077918583687197 -9.275382361324766 0 0 0
1644 1 -7.920851741664093 11.56148809740613 -9.09937447363632 0 0 0
1501 1 -3.5214408625518647 10.347752982343874 -10.15358926750633 0 0 0
1660 1 -4.194252827961092 12.673727648753157 -9.919556218257297 0 0 0
698 1 -6.805791069758802 12.128286395237595 -12.827204716404419 0 0 1
1658 1 -5.439802053980518 10.536089163259007 -8.51943074442 0 0 0
1485 1 -4.917242488411203 13.452353590131459 -12.129601093130205 0 0 0
1318 1 -3.040597421576523 13.221844570885995 -13.715986714727558 0 0 0
1645 1 -5.930331186588617 13.014205546777944 -8.324593187233255 0 0 0
1646 1 -6.81426745358786 13.652522812315375 -10.632689947629405 0 0 0
1299 1 -8.068816168776593 8.24528583071518 13.710911288725846 0 0 -1
1537 1 1.8724213621241272 8.352052742913436 -8.730085983923953 0 0 0
1520 1 -1.6979300759481557 10.040627044417661 -11.692859140618435 0 0 0
1339 1 0.26260450473777297 9.954728490549897 -13.383177260887315 0 0 0
1521 1 0.22056177357437967 11.494010240043789 -10.852313818925719 0 0 0
1522 1 -0.47157648060826496 12.371238007082184 -13.134285355736003 0 0 0
1538 1 1.0360624342897324 9.087968264119333 -11.01250184798377 0 0 0
1503 1 -2.4075087921330685 12.680949793120341 -11.554932363555526 0 0 0
1672 1 -1.6371765665672982 11.724573525711389 -9.397796098386863 0 0 0
1519 1 -0.9607140754628247 9.417990423429778 -9.44327624755218 0 0 0
1686 1 1.0855471219529704 10.896673680168607 -8.547643327679125 0 0 0
1688 1 2.151924209042221 12.953920429366466 -10.05618878131484 0 0 0
1540 1 2.21949380615251 11.423589113542327 -12.5024920077992 0 0 0
1673 1 0.2714278370009424 13.122935345621094 -8.612582498087601 0 0 0
1523 1 1.3995287597668238 13.75242685093328 -12.333488738622009 0 0 0
1358 1 2.8204568294701566 9.04999618125973 -12.544842788358805 0 0 0
1556 1 3.602548403228923 8.292400239874727 -10.292352628360279 0 0 0
1539 1 2.7775578679029493 10.633711067557023 -10.144528383765422 0 0 0
1558 1 4.726021016060528 10.36122518189977 -11.673871178700733 0 0 0
1560 1 5.896863257731308 12.589165535753164 -13.136978669727535 0 0 0
1559 1 6.63166757763959 11.74990860395134 -10.981550476071858 0 0 0
1576 1 7.3682402391428425 9.351379877575788 -11.088685474266443 0 0 0
1541 1 4.030123170890473 12.799635674076079 -11.6267118573882 0 0 0
1557 1 5.498223582187617 9.626758248823638 -9.518340674293729 0 0 0
1701 1 4.760693950798387 11.928860065387763 -9.352438216637815 0 0 0
1715 1 7.320489247926755 11.139773631560274 -8.786997211466165 0 0 0
1359 1 6.501937612015993 10.184706586046207 -13.377965403593079 0 0 0
1702 1 6.638189712078862 13.489070545054922 -8.602284899911675 0 0 0
1575 1 8.101965597711693 8.702311236150653 -8.808624014305192 0 0 0
748 1 13.73421336525075 8.076079980306886 -13.683413468706753 -1 0 1
1418 1 11.894126277511244 8.177058378698934 -12.108525299008175 0 0 0
1379 1 8.578950087096356 11.507869307952966 -12.507533877334362 0 0 0
1577 1 8.665776119549367 13.255757768369175 -10.196319028167952 0 0 0
1578 1 10.505613497350495 12.942716646101584 -11.70018116655225 0 0 0
1594 1 9.931533512968034 8.289940153512415 -10.421871776038119 0 0 0
1398 1 9.23255746306792 9.133507136989131 -12.72254991229422 0 0 0
1596 1 11.122048203008276 10.526806404517803 -11.955760822676705 0 0 0
1597 1 13.046072151610815 12.03134292485824 -10.980235509413346 0 0 0
1595 1 12.020727275089218 9.848612222673871 -9.699685327572857 0 0 0
1730 1 9.375400566278326 10.75463267638251 -10.284707175812862 0 0 0
327 1 12.41804935992981 12.942869353009684 -13.238809550465746 0 0 1
1731 1 11.163919353387119 12.293479365405478 -9.514885006538591 0 0 0
1278 1 12.881434599778228 10.333579766064133 -13.469136170490668 -1 0 0
1457 1 13.816913321499886 9.70190290353603 -11.286874889638217 -1 0 0
1622 1 13.882783783787762 11.293997330249486 -8.833629795097172 -1 0 0
1018 1 13.211501791681805 13.697384838927132 -8.861600638200464 0 -1 0
1633 1 -8.513561944257674 13.883312897594685 -8.825453630999371 0 0 0
943 1 -2.251911401757841 14.14063634311799 -9.154573986464246 0 -1 0
1674 1 -0.3661655721170689 14.009523010079278 -10.795270902637384 0 0 0
1703 1 6.026325241321807 14.114466906021146 -10.906647063709102 0 0 0
1717 1 7.96255546074838 13.89534953165872 -12.376934877483963 0 0 0
962 1 -12.940849105387088 -13.337506087396248 -7.984252484238336 0 0 0
1029 1 -13.674254199407684 -10.940211288305374 -7.867011207859425 0 0 0
1028 1 -12.929046575757885 -11.612299702019765 -5.554074340664934 0 0 0
1030 1 -11.773792564673549 -9.590459272765155 -6.967401456353949 0 0 0
1039 1 -10.352183175249737 -12.65418168769095 -4.948983053268732 0 0 0
1040 1 -11.080292558832525 -11.890906169915105 -7.1630575651128 0 0 0
1161 1 -10.947351298988513 -10.302305197495983 -4.827304741221882 0 0 0
1041 1 -9.100816920860211 -10.618994288480858 -6.485718675997377 0 0 0
1144 1 -12.81468029958445 -10.111571673458817 -3.260672129852459 0 0 0
1159 1 -12.121544160770366 -12.466823437703141 -3.258558087472643 0 0 0
1162 1 -9.072840109140365 -9.056077237347123 -4.105031206198985 0 0 0
1145 1 -13.737294540858674 -9.255042345997374 -5.40825703771659 0 0 0
1175 1 -9.557524905485348 -13.484608786326845 -2.7338763347123525 0 0 0
961 1 -12.387260141988751 -13.996521473808462 -5.78164382718813 0 0 0
1052 1 -8.446559504810523 -12.882204820851827 -6.675386709861627 0 0 0
1177 1 -8.419900742005343 -11.343294021305569 -4.10198587607357 0 0 0
1160 1 -10.249467930592939 -11.101812821437017 -2.589372425543491 0 0 0
975 1 -6.534806299457809 -13.092267932102505 -8.23708099638755 0 0 0
1054 1 -7.294485096995791 -10.662194504899617 -8.160452937847314 0 0 0
1065 1 -4.718345982524184 -11.711228575881249 -7.524962981698597 0 0 0
1051 1 -7.7471205525275 -13.605622939529702 -4.394712408596543 0 0 0
1053 1 -6.563158646491658 -11.590841406433473 -5.859526434592858 0 0 0
1055 1 -5.215211789603337 -9.427707827005037 -7.339664994931454 0 0 0
1195 1 -4.619163207098438 -10.196496814677586 -5.139267828003824 0 0 0
1064 1 -3.9561410609155487 -12.509327353562579 -5.2218860641264975 0 0 0
1178 1 -6.550025223528381 -9.872526437593983 -3.486950961901366 0 0 0
1193 1 -5.738561466254444 -12.169757840276642 -3.605982301168078 0 0 0
1179 1 -7.128753692885688 -9.219333915809477 -5.708769427473143 0 0 0
1838 1 -5.779482577228464 -13.909263382324642 -5.871687235430805 0 1 0
1209 1 -3.203524459826056 -13.280868508744636 -2.7621179244182077 0 0 0
1194 1 -3.9202834256340005 -10.953236881623528 -2.8330411583725734 0 0 0
1773 1 -4.019856570801695 -14.114078727982282 -7.505308509481519 0 1 0
991 1 -0.7803151012991627 -10.525172070388628 -8.132790164305609 0 0 0
1066 1 -2.760965565621035 -10.278557971812733 -6.66296578981169 0 0 0
1079 1 -0.34920954359541767 -11.240659745043619 -5.970090427465196 0 0 0
1076 1 -1.475959564007276 -13.418963388380542 -4.563860382195356 0 0 0
1077 1 -2.0969551785392113 -12.656619079913387 -6.8318870264340195 0 0 0
1211 1 -2.1030752613372847 -11.003442283288361 -4.324163079014694 0 0 0