LAMMPS data file via write_data, version 2 Aug 2023, timestep = 0, units = metal

1859 atoms
3 atom types

-13.642197565774568 13.642197565774568 xlo xhi
-13.863640084900887 13.863640084900887 ylo yhi
-14.519867988522973 14.519867988522973 zlo zhi

Masses

1 55.847
2 1.008
3 1.008

Atoms # atomic

1246 1 -13.041399251652686 -10.066905300657316 -12.84413652145979 0 0 0
1248 1 -10.62840440413472 -10.244247429792242 -13.253021634333738 0 0 0
1114 1 -9.628379977806592 -11.118808178883 -11.169412972156724 0 0 0
1250 1 -11.501105021026818 -12.616789575600137 -12.949054905988962 0 0 0
1105 1 -11.147219446415113 -8.797578209310409 -11.357539047717044 0 0 0
1104 1 -11.937286070230252 -11.115040743826745 -10.845677715488982 0 0 0
1113 1 -8.230316162563426 -9.97151955533404 -9.364029269152182 0 0 0
1108 1 -9.112003592422472 -12.502022420515118 -13.103694908949628 0 0 0
1258 1 -8.758234074514146 -8.93267970912183 -11.62575981634075 0 0 0
1855 1 -12.914409199687631 -13.53379820491615 -10.469232414710063 1 1 0
1112 1 -11.204128085328064 -9.66944032691638 -9.134844109260204 0 0 0
1249 1 -8.205875794768984 -10.106890565025928 -13.672913570789095 0 0 0
1823 1 -10.440977617692436 -13.519235530838278 -10.689256113319829 0 1 0
16 1 -13.246221187461911 -13.812048900189914 -14.409066710927103 0 0 1
1106 1 -7.970457912991893 -13.543725239654085 -11.153227870824843 0 0 0
1003 1 -6.926031038725858 -12.210727561886069 -9.395294419598411 0 0 0
1107 1 -7.188607378372531 -11.02780433814845 -11.634736229047236 0 0 0
1115 1 -5.481717302177302 -10.078690699536768 -9.830404033283912 0 0 0
1260 1 -4.587767063351791 -11.182572200901397 -12.005373388323218 0 0 0
1261 1 -6.045291339403301 -8.914829476439458 -11.911477977828651 0 0 0
1008 1 -2.8992590959667055 -9.827439463824177 -10.44603057648958 0 0 0
1251 1 -5.647406041292283 -10.161053861541655 -14.034810178322884 0 0 0
1263 1 -3.782399658116976 -8.96596671188652 -12.44998188724662 0 0 0
1118 1 -4.187937086761588 -12.297945191959348 -9.728329974125955 0 0 0
1254 1 -4.030963254924789 -12.546232597041275 -14.025370782333615 0 0 0
1252 1 -6.5325461824191144 -12.446302786303425 -13.41495665349403 0 0 0
1116 1 -3.1005486341385406 -13.418842939144895 -11.846683033710711 0 0 0
1788 1 -5.576617772132803 -13.45714282004972 -11.534949183246706 0 1 0
1253 1 -3.136448317099271 -10.25913160114276 -14.3913155043214 0 0 0
1110 1 -1.4632858852224864 -12.305456692155355 -10.153985294988185 0 0 0
1262 1 -2.155848775777601 -11.19364534466222 -12.435768265287743 0 0 0
1264 1 -0.5183330674200501 -10.015352104518438 -10.752172415097478 0 0 0
1265 1 -1.3584415792533289 -8.94215246627063 -12.81087726825259 0 0 0
334 1 0.25720108162323285 -11.249860144070933 -12.645234559554261 0 0 1
1266 1 1.9628600823114208 -10.226587938210619 -11.074869554422833 0 0 0
1267 1 0.9691040907153816 -9.022468948937796 -13.223789448136575 0 0 0
1851 1 1.3455975937417701 -12.317744056639583 -10.604920178483464 0 1 0
1109 1 -0.5002408230572382 -13.476227777849006 -12.225880354521923 0 0 0
1268 1 2.8052738201237286 -11.422680099173991 -13.071289749615373 0 0 0
1829 1 -1.5928115059085393 -12.577344310250918 -14.25683694371709 0 1 0
1255 1 1.9155593792835006 -13.532203977369416 -12.609104756856919 0 0 0
1136 1 0.38113108245431704 -8.562099805396915 -8.868284394230024 0 0 0
1138 1 3.0723123653369857 -8.833308267030592 -9.408937297593061 0 0 0
1847 1 3.8357417219791916 -12.376732664153401 -11.091026877029346 0 1 0
1269 1 3.52075915507727 -9.016276653805328 -13.49067651676308 0 0 0
1288 1 4.5038228121269395 -10.046418194489448 -11.482172700764153 0 0 0
1125 1 5.119622822619435 -11.360226030987747 -13.420923640761275 0 0 0
1290 1 6.0271291195683165 -9.207580281125438 -14.055220755016066 0 0 0
1015 1 7.320780234211506 -11.073979922395653 -9.474042869658419 0 0 0
1127 1 6.196360572181982 -12.353016284448092 -11.477701076191407 0 0 0
599 1 6.935293308910756 -10.058060552757466 -11.705943105826528 0 0 1
1126 1 7.564527266235329 -11.291266611130094 -13.91850562972768 0 0 0
1123 1 4.393587677257118 -10.928101957459688 -9.322272761816578 0 0 0
1140 1 5.959597757592649 -8.872060780780487 -9.74063434451627 0 0 0
1270 1 6.809672525302334 -13.72285649104415 -13.545009793414879 0 0 0
1447 1 8.485143786543338 -9.10788018889411 -14.363372613397377 0 0 0
1124 1 4.329110686776305 -13.665638212157113 -13.11866735659329 0 0 0
1845 1 5.834031454325315 -13.062105969789714 -9.15646903250518 0 1 0
1849 1 8.533657794843679 -12.179317828102542 -11.847988477327473 0 1 0
1142 1 8.702278733373175 -8.89058683338834 -10.079557713216632 0 0 0
1146 1 -13.582884387784528 -8.728736922235989 -10.853734335678523 1 0 0
1853 1 8.752645277974986 -13.140100579346717 -9.589724516632273 0 1 0
1856 1 13.399131652497056 -12.261028223189422 -12.695178497095592 -1 1 0
1016 1 10.19044448732725 -11.239757072387974 -10.0637871093879 0 0 0
1294 1 11.791235213782988 -10.088233447798206 -12.600204730904887 0 0 0
1147 1 12.796612483411051 -11.199687800673448 -10.652975645217005 0 0 0
1273 1 9.463694952658754 -9.951163470384618 -12.23367491099463 0 0 0
1274 1 10.978543177002598 -12.313557441921423 -12.11871263240348 0 0 0
1854 1 11.658072205790186 -13.395668973145222 -10.032927647284724 0 1 0
1292 1 11.31802918349583 -8.700097299596221 -10.788934256248064 0 0 0
1271 1 10.018495726255201 -11.273746707345522 -14.18913144058125 0 0 0
1272 1 9.1796075763791 -13.570052333051141 -13.71363748724939 0 0 0
597 1 11.634112842194233 -13.753631541599685 -14.06959212413631 0 0 1
1429 1 -9.74136882207045 -7.961490605730628 -13.68845704646884 0 0 0
1247 1 -12.243546186472093 -7.849969343041584 -13.395603069357936 0 0 0
1257 1 -10.332416682942641 -6.520710071306995 -11.662609074359391 0 0 0
1434 1 -12.028144665371205 -4.3006553039794575 -11.83609089661297 0 0 0
1436 1 -9.544945821882191 -4.323410704473634 -12.135467821902822 0 0 0
1430 1 -11.30293997403427 -5.644433999069527 -13.78715527860937 0 0 0
1276 1 -9.697299810581706 -7.672951054559352 -9.773807256221058 0 0 0
1334 1 -11.028397542327271 -5.2731582352482995 -9.731568068187514 1 0 0
1279 1 -8.559534362681342 -5.44842168340289 -10.05136859199373 0 0 0
1602 1 -13.106547824615845 -3.3207667017655975 -13.857939208484085 0 0 0
1314 1 -12.802374368228724 -6.535988678348071 -11.473001738953428 1 0 0
1277 1 -10.260753225037178 -2.960805832016918 -10.226333343301778 0 0 0
1431 1 -8.966947060405333 -5.667380600615804 -14.133609166517228 0 0 0
1333 1 -12.759441702081414 -3.0978741727066748 -9.937930707863405 1 0 0
1256 1 -12.497640598770031 -7.3670669120734615 -9.148888290847182 0 0 0
222 1 -10.69163399980917 -3.406309678843863 -14.280535320437135 0 0 1
1259 1 -7.923507156341321 -6.6423234352364116 -12.104228278723419 0 0 0
1432 1 -7.18786757525077 -7.956144893895327 -13.975465701512032 0 0 0
1278 1 -6.917146918180972 -7.745225421689448 -9.832522067493613 0 0 0
1281 1 -6.0015378581873255 -5.299166763140086 -10.538451482040125 0 0 0
1282 1 -3.6006497306540055 -5.183591805572629 -10.966511714624435 0 0 0
1280 1 -4.4930601502019964 -7.704287372009628 -10.457092575112584 0 0 0
1438 1 -7.120057944038825 -4.3615606316220745 -12.483662348044293 0 0 0
1440 1 -5.539044197222735 -6.602748507636162 -12.475355954110595 0 0 0
1441 1 -4.73037688236737 -4.270366816271386 -12.951297568102278 0 0 0
1455 1 -5.411722253058894 -2.896267078117198 -10.902497767189313 0 0 0
1451 1 -7.835602151323951 -2.924778958539818 -10.624970258875912 0 0 0
1442 1 -3.0804054484137833 -6.63976537864846 -12.909404952473846 0 0 0
1457 1 -2.9030092576121262 -3.0493129452059424 -11.451493296122806 0 0 0
1299 1 -4.965970909386769 -3.8131557898289437 -8.688377315911708 0 0 0
336 1 -4.894470030585968 -7.997049672859695 -14.478495693844936 0 0 1
1301 1 -2.1242845195425115 -3.8794877141099544 -9.186027144617277 0 0 0
1284 1 0.4658241465257742 -7.634066207841313 -11.111884009339745 0 0 0
1117 1 -1.8792099294044782 -7.56187784066227 -10.695482736938489 0 0 0
1443 1 -2.2142895850385695 -4.5186465423456 -13.384422303865499 0 0 0
1283 1 -1.0993217652147607 -5.352091101360342 -11.231667697599768 0 0 0
1444 1 -0.6192385831135248 -6.654354618353673 -13.196814402727014 0 0 0
1285 1 1.1793876017547102 -5.382868788195308 -11.63388257632748 0 0 0
1445 1 0.253479425385029 -4.407882398381583 -13.611842948877742 0 0 0
1304 1 1.9275860257484503 -6.490187376573711 -9.512210867413014 0 0 0
1446 1 1.8605353709109576 -6.687089410069373 -13.634863532446825 0 0 0
1303 1 0.5484292513970299 -3.835589501028087 -9.610527979605301 0 0 0
1459 1 -0.4948384009566915 -3.064138651098032 -11.658267134706964 0 0 0
1460 1 2.0011282995417545 -3.025246717370351 -11.999366775706617 0 0 0
601 1 2.5117468293689935 -4.396456636033777 -13.997404016016946 0 0 1
1286 1 2.7586125112004307 -7.740811707015337 -11.652214404637022 0 0 0
1302 1 -0.8294145027064275 -6.297639167776362 -8.98430382961725 0 0 0
1305 1 3.142816987481213 -4.1929131985623975 -10.091882555528656 0 0 0
1289 1 5.424345963642457 -7.790050619574077 -12.083611001714875 0 0 0
1293 1 7.750118025565241 -7.825250966663388 -12.418775245801104 0 0 0
1306 1 4.534667986226806 -6.530033490248795 -9.904204085702478 0 0 0
1291 1 6.13679014338963 -5.519903621072759 -12.32506603043961 0 0 0
1287 1 3.566227621604847 -5.435395271933608 -12.080492964066067 0 0 0
1307 1 5.459201554035227 -4.101991716348751 -10.364792616190762 0 0 0
1308 1 7.0690914279200765 -6.539405628607779 -10.394202255931358 0 0 0
1309 1 7.823847637865937 -3.9715399839962195 -10.787141691255597 0 0 0
1462 1 4.350366750224767 -3.140251479046464 -12.376336661124382 0 0 0
1461 1 6.842274345950289 -3.174896551463366 -12.76933297376841 0 0 0
600 1 4.293524722915057 -6.829013372911071 -14.049057606452902 0 0 1
1463 1 8.534372798134234 -5.505054550015654 -12.689695707201988 0 0 0
718 1 6.734313729108122 -6.776879701235983 -14.33722831515106 0 0 1
720 1 4.923111758503778 -4.544923907164101 -14.343962593615984 0 0 1
1332 1 13.396081981445262 -5.172484072621694 -9.427618294065216 0 0 0
1467 1 13.388837051608915 -5.528816183553259 -13.413522135171126 0 0 0
1428 1 12.6856347924347 -7.789930790695401 -13.043384978768653 -1 0 0
1427 1 10.160925960381492 -7.709568431100338 -12.702816323935915 -1 0 0
1310 1 9.587833291755674 -6.468554603145233 -10.577605737619933 0 0 0
1313 1 12.716230978147761 -4.096430356008321 -11.50217000798991 0 0 0
1312 1 11.92294792337382 -6.349578322353548 -11.121202967042327 0 0 0
1311 1 10.241315358076308 -4.094197282395479 -11.091629746693979 0 0 0
1465 1 10.926643755633114 -5.504041684117279 -13.144246872026898 0 0 0
1466 1 9.307850954011103 -3.2483744222080517 -13.154324743294518 0 0 0
1486 1 11.69956913318257 -3.2060175556070316 -13.536112385858036 0 0 0
1331 1 12.095193889848792 -2.850944033730457 -9.425721563930246 0 0 0
1329 1 9.213128610672586 -2.7375267942183648 -9.149581309658947 0 0 0
1164 1 12.130506546351954 -7.274817470163564 -8.880839496736666 0 0 0
1435 1 -11.300948654277352 -1.9724462814477803 -12.298559291192154 0 0 0
1449 1 -9.444092775221748 -0.6629849281598439 -10.76127073073695 0 0 0
1604 1 -12.830862716357291 0.35064011483182966 -12.3811539965068 0 0 0
1613 1 -11.10011110567278 1.6666638478762543 -10.90500192212455 0 0 0
1433 1 -11.816900222301443 -0.49608373869935285 -10.423168030553445 0 0 0
1616 1 -10.358102051977626 0.22101857012360604 -12.810694250911496 0 0 0
1739 1 -9.724877907089917 2.5276118739545694 -13.306298485039367 0 0 0
1733 1 -12.116678666664095 2.5554724762085463 -12.886055399592065 0 0 0
1448 1 -13.589930653366254 1.6776613713695152 -10.467778080681983 0 0 0
1453 1 -8.709872023229696 -2.1429850554937406 -12.648762801355316 0 0 0
1450 1 -8.708890153012291 1.5696396660715752 -11.123651592882283 0 0 0
126 1 -12.31326051205765 -1.0047342431252577 -14.421178269396158 0 0 1
1487 1 13.592483576969764 -1.9394724245224655 -11.850855901039623 0 0 0
1631 1 -9.26056431948528 2.994358257500423 -9.140413838370637 0 0 0
1609 1 -7.9109768921891845 0.18295107606502192 -13.0923010204147 0 0 0
1608 1 -6.412906451580032 -1.9546649816568777 -13.029954179026475 0 0 0
1610 1 -3.871867123464943 -2.0999092311573744 -13.366193993102106 0 0 0
1605 1 -7.296328822980465 2.480188340560961 -13.660624228314482 0 0 0
1615 1 -6.282373071115275 1.6459419278512843 -11.577460976198466 0 0 0
1452 1 -6.96438484860906 -0.6758586124678221 -10.962767007317876 0 0 0
1454 1 -4.606056933260108 -0.6497657827686201 -11.457459165604181 0 0 0
1618 1 -5.535344198327973 0.28392722177502705 -13.535847524729126 0 0 0
474 1 -4.824302629116527 2.4870625553161467 -14.115259674221248 0 0 1
1617 1 -3.761204686559486 1.481563406041884 -11.858584780517859 0 0 0
1472 1 -5.149086648277418 0.5471170879509799 -9.427774209983497 0 0 0
1473 1 -3.6037252724228956 -1.7239521675952254 -9.48401845021565 0 0 0
1620 1 -3.1482600028797876 0.19561146994754175 -13.975318140963683 0 0 0
1474 1 -2.6737129596623976 0.5481241698696078 -9.883836113213999 0 0 0
1471 1 -6.234221031949162 -1.5654361463322495 -8.861387442966006 0 0 0
1470 1 -7.749046595925214 0.6364766518751441 -8.929828978274191 0 0 0
1493 1 -4.311843867276027 2.9785511076942903 -9.949479315007736 0 0 0
724 1 0.9191552001341741 -2.123543528357416 -14.027779959730275 0 0 1
1475 1 -1.0926449267073561 -1.6829904532477418 -9.904288094899925 0 0 0
1611 1 -1.5639538946102078 -2.0992191302579837 -13.889937667463597 0 0 0
1456 1 -2.090546241126898 -0.8176359173990253 -11.875904507373395 0 0 0
1619 1 -1.3362174386281858 1.490803332052085 -12.197880527959697 0 0 0
1458 1 0.4110537158601115 -0.772053245339622 -12.0552430255904 0 0 0
1476 1 -0.14717242399643737 0.5842445028984891 -10.13917292188702 0 0 0
1477 1 1.5278587065028262 -1.686393396276852 -10.101453933096632 0 0 0
1621 1 1.0792770119914863 1.5023433060528433 -12.6947263923794 0 0 0
1478 1 2.1774727003937713 0.7215404728432464 -10.67527149298217 0 0 0
1622 1 -0.7067096156054582 0.18186081380651764 -14.27075926484091 0 0 0
1623 1 2.7563195342515296 -0.8994038533981659 -12.536971124170385 0 0 0
1641 1 3.0056748139694793 2.88569123954003 -11.158754750631944 0 0 0
1745 1 -2.4602239529611847 2.48893622476141 -14.457301525903024 0 0 0
1497 1 0.44873504806779785 2.8639773466984693 -10.692916572352843 0 0 0
1479 1 3.8126094419160292 -1.6235677584488126 -10.613442316655425 0 0 0
1639 1 3.3954879325851604 1.3945453193754958 -13.023717825418247 0 0 0
1481 1 6.2440769273876935 -1.8137697874957386 -10.901266527552188 0 0 0
1480 1 5.112671169553673 -0.8898558321724899 -12.966714415783642 0 0 0
1482 1 4.707859705047801 0.6637561767040392 -11.182722989460455 0 0 0
1624 1 6.035063449466646 1.411168732822258 -13.435617002839328 0 0 0
1647 1 7.008089375585106 0.4877066294029415 -11.309436921474488 0 0 0
1464 1 7.566947874146303 -0.8450937623396513 -13.232717878566657 0 0 0
1501 1 6.554660332826144 1.8038171401658545 -9.317668106652047 0 0 0
1643 1 5.401054088895711 2.820528488505886 -11.658449513213789 0 0 0
1645 1 7.898397605582504 2.7293751941726043 -11.907884445660114 0 0 0
1502 1 7.940197408679351 -0.4917365535386846 -9.197738728892528 0 0 0
1625 1 8.424131650604034 1.3983328415945255 -13.860211858020989 0 0 0
1499 1 3.9453620432470284 1.9992879268532704 -9.013468195330615 0 0 0
1483 1 8.73007141261507 -1.762516096105335 -11.198557421237993 0 0 0
722 1 3.213638668738044 -2.2463991803448895 -14.41333145183585 0 0 1
1503 1 8.974049349534523 1.7575499041806797 -9.6861636488274 0 0 0
1603 1 12.770092955803458 2.6884244059008964 -12.512533784614243 -1 0 0
876 1 12.521542635797465 -1.068051150198718 -13.94881668314605 0 0 1
1485 1 11.107831354164182 -1.9482739310437882 -11.441259763137232 0 0 0
1504 1 10.524215526685362 -0.5411374300099361 -9.547942673391713 0 0 0
1628 1 11.839935351379426 0.36258698638829046 -11.939450382110211 0 0 0
1627 1 10.087211125658884 -0.9456340303309236 -13.508078397845857 0 0 0
1484 1 9.43224816037401 0.5142947774423217 -11.693484445092187 0 0 0
1506 1 12.998132244749732 -0.6924172980041696 -9.951956276616544 0 0 0
1505 1 11.358590763967024 1.7632199448595962 -10.165710956117984 0 0 0
1626 1 10.78760524803265 1.2659044331646268 -14.121961419339318 0 0 0
1507 1 10.290050285708647 2.7066834426911406 -12.252304264689341 0 0 0
1614 1 -10.332796769719545 3.8623326061694883 -11.34759021732986 0 0 0
1612 1 -12.717363767655826 4.005825947420632 -10.93990111733073 0 0 0
1738 1 -11.426239651914818 4.824977753769861 -13.440500144258646 0 0 0
1749 1 -11.886446118706466 6.330067310172915 -11.477347751454246 0 0 0
1736 1 -10.63868145508226 7.061208320852472 -13.820430029768506 0 0 0
1650 1 -9.366244645672113 7.45209640181853 -10.00449624336892 0 0 0
1784 1 -12.131268321811474 7.661543290123262 -9.462415355814029 1 0 0
1735 1 -10.67215213641669 5.189971205720337 -9.463395304393794 0 0 0
1752 1 -9.574637268987665 6.058175594821094 -11.850369065414952 0 0 0
1816 1 -12.957571581156891 7.225603311670483 -13.532632762834135 0 0 0
1740 1 -8.95272790308725 4.85443387590708 -13.754119480911863 0 0 0
1818 1 -8.323963387543142 7.205603840270186 -14.175116604946723 0 0 0
1632 1 -7.972044360677442 5.347122979371942 -9.814569684738192 0 0 0
1750 1 -8.988739028753626 8.4475928339841 -12.19662280023053 0 0 0
1688 1 -13.304781497511591 5.300091600334547 -9.09038463402161 1 0 0
1747 1 -11.333873364625987 8.579391156408384 -11.872841898152936 0 0 0
1803 1 13.506511874818232 8.63061974468571 -11.71356436207017 0 0 0
1491 1 -6.717386440320291 2.849292667617007 -9.572046166124412 0 0 0
1633 1 -7.861395709971412 3.817939521233228 -11.608262617556592 0 0 0
1652 1 -5.321845792156953 7.472547136131698 -10.540029177215132 0 0 0
1635 1 -5.38202515259492 3.7922552832838363 -12.324369652223503 0 0 0
1634 1 -7.215377137690375 6.2451171581539064 -12.03403015891483 0 0 0
1653 1 -5.7543259618947715 5.167585267321506 -10.228354715965192 0 0 0
1654 1 -2.759098261928063 7.378674912459488 -10.971424919017185 0 0 0
1655 1 -3.4027971178834147 5.180672316640287 -10.67384168521966 0 0 0
1636 1 -4.57237287171581 6.13172854604025 -12.574062725290602 0 0 0
1741 1 -6.6331033262404 4.793671153764109 -14.113224567352317 0 0 0
1637 1 -3.0128296757936592 3.699216933021937 -12.54832669196168 0 0 0
1754 1 -3.835351866537282 8.346014182841895 -12.990090493459771 0 0 0
1753 1 -6.331790323391141 8.43919461226561 -12.529036901528592 0 0 0
1743 1 -4.236972619618241 4.909217469482105 14.4335547183176 0 0 -1
1495 1 -2.0209634315363676 2.765158424978374 -10.50846477402683 0 0 0
1638 1 -0.5629879576542987 3.7595168867962414 -12.74905901256054 0 0 0
1656 1 -0.3108374343081728 7.363652512967732 -11.271853219089863 0 0 0
1755 1 -2.2198059785348168 6.029885059913674 -12.920540691494772 0 0 0
1658 1 2.1502421487769325 7.2292986142439055 -11.70777046386243 0 0 0
1657 1 -1.0425715192106928 5.044019796343104 -10.699416954677087 0 0 0
1640 1 1.3464729092524603 4.97973451091195 -11.134949082331103 0 0 0
1757 1 0.12631103341465177 6.03423969696086 -13.271364215769218 0 0 0
1642 1 1.7564625586069766 3.703881411131608 -13.225171182567713 0 0 0
1678 1 0.8869310578358967 6.640667660600201 -9.245055229494325 0 0 0
1756 1 -1.5248829799907213 8.34536994567484 -13.315022690767236 0 0 0
1758 1 0.8768169750516588 8.332439936066827 -13.660283718071087 0 0 0
1759 1 2.6334546492591127 5.926130316779524 -13.705812710900155 0 0 0
1659 1 2.492235965943971 4.1506081413515155 -8.987787537812636 0 0 0
1676 1 -1.692757505493267 6.741833293766739 -8.810989533206246 0 0 0
1680 1 3.405449283563671 6.302646956872447 -9.55280918126838 0 0 0
1660 1 4.434320616997956 7.441463390767307 -11.97234193517442 0 0 0
878 1 6.78775820105704 3.6271669233943094 -13.827013390404124 0 0 1
1644 1 4.250067097363095 3.658707352198565 -13.623623002101194 0 0 0
1661 1 5.080262531799951 4.267483501658212 -9.51081696978353 0 0 0
1662 1 3.6771465034025415 5.116444416452243 -11.521379814352292 0 0 0
1663 1 7.40119247518127 4.084705766987717 -9.94430823310471 0 0 0
1778 1 5.0264984535335895 5.928116923667311 -13.941743460779215 0 0 0
1682 1 5.754376131727122 6.611766853930526 -9.936630164454126 0 0 0
1763 1 6.103116711934041 5.023888999776478 -11.974741613048604 0 0 0
1779 1 6.883423132887335 7.417658164097123 -12.36485226467092 0 0 0
1760 1 3.410015542843853 8.282102112721766 -14.026224033280391 0 0 0
1664 1 8.12321558430362 6.506645775196681 -10.349986176767622 0 0 0
1780 1 5.7027491002638495 8.352542527040256 -14.425724340873554 0 0 0
1667 1 8.663634871380689 5.019451524589581 -12.341788965132805 0 0 0
1761 1 7.440455678279923 5.909769463640725 -14.243630608839066 0 0 0
1732 1 13.578877417936583 4.982086527773372 -13.138645046132485 -1 0 0
1668 1 12.940954771704975 6.243281922152946 -11.085686930734633 0 0 0
1762 1 9.37231377357085 7.254802556985215 -12.749452286293915 0 0 0
1665 1 9.663997087395012 4.186584911086641 -10.24944458319106 0 0 0
1648 1 11.126815558646252 4.9754859983866275 -12.638094041889516 0 0 0
1527 1 12.126549334067727 4.0919335958387855 -10.748524271279098 0 0 0
1666 1 10.554362051111218 6.474912163777358 -10.800863340619008 0 0 0
1765 1 11.872722803532648 7.206137747517346 -13.156642052053812 0 0 0
913 1 9.103473684136448 3.70355172410256 -14.204797040789892 0 0 1
1687 1 12.521258362040276 7.637043046183955 -9.121205199493332 0 0 0
1748 1 -10.513943333950209 10.883528353829977 -12.210838095564876 0 0 0
1767 1 -8.792888643402051 11.902365260142936 -10.798071213450111 0 0 0
1857 1 -12.04512005684032 12.925544405278874 -12.478327133372378 0 0 0
1837 1 -9.759409923032711 13.030667105150464 -12.81455346273841 0 0 0
1766 1 -10.36046427609305 9.687016378441847 -10.033796589427261 0 0 0
1850 1 -12.378640840984504 9.539187089659414 -14.010828184116486 1 0 0
1814 1 -11.681102993456538 11.772457044315672 -10.03089132196167 1 0 0
1822 1 -13.053068621710569 10.870107128269844 -11.917803438526025 0 0 0
1817 1 -9.901942686980357 9.292727171647151 -14.311473277599292 0 0 0
1707 1 -13.438993000821114 9.770666763572034 -9.72763105762791 1 0 0
15 1 -11.539992733396257 11.63045311636295 -14.407353333067935 0 -1 1
1826 1 -8.05806674431788 10.611448576762673 -12.71815417580085 0 0 0
1768 1 -7.4700092697152085 9.310990746436524 -10.37545811186477 0 0 0
1691 1 -5.639893669357143 13.28388281140969 -9.38778965123889 0 0 0
1790 1 -2.8153462697663745 13.186980869959918 -9.555136178968269 0 0 0
1769 1 -6.258713576234739 11.776809467315388 -11.16514822739809 0 0 0
1770 1 -4.643722836024798 9.631484576808344 -10.940203477655079 0 0 0
1771 1 -3.850643125396946 11.951382180124916 -11.403950912008609 0 0 0
1828 1 -5.503124096406948 10.731760816676701 -13.133093317485656 0 0 0
1838 1 -7.217810556640071 12.91076933374675 -13.09563254796908 0 0 0
1839 1 -4.833974100089645 13.054728721362455 -13.451762251345627 0 0 0
1830 1 -3.0817112566807694 10.686693300310651 -13.450582684815801 0 0 0
1789 1 -4.431017792486097 11.069034550664206 -9.090596105259948 0 0 0
1675 1 -3.137211731758155 8.773733913670743 -9.057837088371553 0 0 0
1679 1 2.267563102768616 8.550741091659162 -9.809023743345001 0 0 0
1831 1 -2.2821866203055503 12.957690755169398 -13.81901334377263 0 0 0
1772 1 -2.12557382524521 9.676795792322068 -11.391818814911874 0 0 0
1791 1 -1.4755732913239097 11.0182486349015 -9.538536062394723 0 0 0
1677 1 -0.4452177615603645 8.81395623632762 -9.352243115761791 0 0 0
1840 1 -0.03127037443933389 13.044941711303675 -10.058075711007438 0 0 0
1773 1 -1.456676857047837 11.886754202002109 -11.864113481533913 0 0 0
1794 1 2.8483182039060804 12.899866833260027 -10.411351804704887 0 0 0
1774 1 0.29043110382735904 9.651226326228304 -11.685487284093302 0 0 0
1775 1 0.9790189022048548 12.037775569160061 -12.080469268471386 0 0 0
1832 1 -0.7301934939729886 10.518854692528791 -13.896689651567119 0 0 0
1793 1 1.3016601980549911 10.875144054148254 -9.857996851240056 0 0 0
1834 1 1.751313521334957 10.480148679725268 -14.040116725085749 0 0 0
1841 1 0.016181074149191232 12.78972069663807 -14.2606980829597 0 0 0
1776 1 2.7421098761158955 9.490320038228823 -12.05965921807486 0 0 0
1683 1 8.780417600579172 8.745717340584221 -10.8235473966555 0 0 0
1681 1 6.061605736019549 8.70107726973771 -10.399343979006067 0 0 0
1795 1 4.134415461223524 10.687822501620886 -10.265416148408956 0 0 0
1777 1 5.082185578612874 9.657893051646443 -12.578304361600818 0 0 0
1842 1 3.549111365394948 11.863069248380707 -12.577085715243033 0 0 0
1796 1 5.329194016504319 12.95940011316765 -10.850812032175668 0 0 0
1844 1 5.938256547463714 11.909123504660673 -12.94618925114752 0 0 0
1798 1 7.650217438867186 13.233056714086619 -11.321323243562928 0 0 0
1797 1 6.900490425363168 10.872108339336808 -10.948475228991986 0 0 0
1781 1 7.560332502146144 9.614454089122699 -12.744994404231326 0 0 0
1846 1 8.269934454717879 11.878774051630291 -13.41228732239754 0 0 0
1808 1 7.340680402208617 12.546355798929604 -9.149311184285942 0 0 0
1703 1 8.428318008953879 10.294155347827317 -8.96018157849607 0 0 0
1685 1 11.307195769009903 8.710097455773933 -11.194115184961715 0 0 0
714 1 13.308163141233967 11.640104097618252 -13.994788968829337 0 -1 1
1799 1 9.278963002526941 10.942929130922046 -11.211449906643816 0 0 0
1783 1 12.48209528409342 9.415060073165744 -13.701852571316493 0 0 0
1782 1 10.042994362735518 9.524606227816452 -13.274525733935196 0 0 0
1800 1 10.153149657545297 13.227438783129326 -11.729398887036648 0 0 0
1848 1 10.820861194793187 11.766469417403286 -13.632544911525475 0 0 0
1801 1 11.791517166375035 11.012273641164306 -11.53876459799923 0 0 0
1802 1 12.823517169401368 13.184590188065982 -12.051220952374544 0 0 0
1812 1 12.768583994954879 11.97293110096211 -9.642991351137143 0 0 0
1705 1 11.24319362439565 10.103932061173687 -9.226671174005464 0 0 0
1810 1 10.203502238345587 12.406652684691593 -9.431844292254311 0 0 0
1002 1 -9.659989724815333 -12.08162987746174 -8.908787132301265 0 0 0
1018 1 -9.188268657467077 -11.435488622002774 -4.998120558053451 0 0 0
946 1 -10.797086544713752 -13.309738459061327 -4.554889760350353 0 0 0
1005 1 -10.964004287176941 -11.559403045839533 -6.954029342037297 0 0 0
1129 1 -9.446798672842101 -9.637161994198358 -7.22387096385101 0 0 0
1004 1 -12.05968136105082 -11.298659381597858 -4.679085922241596 0 0 0
1017 1 -10.615326043198035 -9.284851732120547 -5.118706883138509 0 0 0
1167 1 -12.241382728566487 -9.45648525625029 -6.861047215736783 1 0 0
1036 1 -12.447064271960018 -13.407769453321613 -6.400583845704578 1 0 0
1035 1 -12.702409462167484 -11.686251680258277 -8.60264519784231 1 0 0
1055 1 -13.444261942506673 -8.978361752036463 -4.760823387916023 1 0 0
965 1 -13.482460915775059 -13.07491150706138 -4.2292678300713575 1 0 0
1006 1 -8.093023201758916 -11.842504006235856 -7.211383026214475 0 0 0
1038 1 -8.988797243673279 -9.069439489803418 -3.324450530924171 0 0 0
933 1 -7.909527690898584 -13.699613769329918 -5.039106241237436 0 0 0
1019 1 -7.804761167863686 -9.491311133091486 -5.446546291039185 0 0 0
1131 1 -6.569726663568328 -9.948878128144862 -7.673003563660408 0 0 0
1020 1 -6.338361887907628 -11.835352847050768 -5.379002043117765 0 0 0
1009 1 -5.208633148270344 -12.136662952101638 -7.543806998402995 0 0 0
1022 1 -3.647310179604146 -11.914823056163184 -5.822307107454211 0 0 0
1133 1 -3.7552217375570276 -10.143898932429835 -8.078096497375224 0 0 0
1021 1 -5.068486941585915 -9.728599586615704 -5.861487943027829 0 0 0
1023 1 -3.3685171210452562 -9.531008760291602 -4.037355243336831 0 0 0
1040 1 -6.1633041783466735 -9.31151546418619 -3.7282830939957883 0 0 0
954 1 -4.7130625574172225 -11.604816484533691 -3.651752870189549 0 0 0
948 1 -3.4818065513279297 -13.757992337525563 -3.476636243092429 0 0 0
1010 1 -2.627208244467127 -12.430963367130074 -7.932795466336355 0 0 0
1710 1 -5.0860787210847125 13.714381158222682 -5.353009497401116 0 0 0
1121 1 1.6227288363030574 -10.718922756624405 -8.784026943176361 0 0 0
1135 1 -2.2738450209294285 -9.961220230761818 -6.200833108640799 0 0 0
956 1 -2.013160361805678 -11.870747970083942 -3.907144919558437 0 0 0
1119 1 -1.2227550542738097 -10.397721526359884 -8.418994810244133 0 0 0
1012 1 -0.8976954923555507 -12.185873794421227 -6.19801134087831 0 0 0
1025 1 -0.5666707291731363 -10.01772505416795 -4.567761263375706 0 0 0
1120 1 0.17231799039506512 -12.664778583842663 -8.296763825605208 0 0 0
1137 1 0.6117647952128138 -10.225583501831943 -6.569167907572867 0 0 0
1026 1 0.7518213498623343 -12.123452697117182 -4.467269210088993 0 0 0
1013 1 2.0494595075801048 -12.63573432069613 -6.631893763742628 0 0 0
1027 1 2.3359039669886847 -10.239687546879868 -4.862732792993302 0 0 0
1157 1 2.1540312692449746 -8.48584079129283 -7.188220001620416 0 0 0
1122 1 3.119497096546711 -12.938145051024991 -8.88728458909371 0 0 0
1139 1 3.475353309165543 -10.601666042230315 -7.055615395600743 0 0 0
1028 1 3.637430825867307 -12.577444476879844 -4.795990123203197 0 0 0
1852 1 4.593931693122867 -12.731534506532402 -6.994173534656401 0 1 0
1029 1 4.9754269725730484 -10.510853601482967 -5.266752112844822 0 0 0
1141 1 5.902806202645904 -10.725527953973724 -7.535231998580218 0 0 0
1030 1 6.389382379047431 -12.5626723874618 -5.273044376328574 0 0 0
1809 1 7.518098260333966 -12.952081085217069 -7.265688856727573 0 1 0
1031 1 7.790641428770476 -10.57002948509015 -5.793546554992902 0 0 0
1161 1 7.663744661200317 -9.04789555805048 -7.781011167132011 0 0 0
1159 1 4.773231724097714 -8.547289573985273 -7.661304240109013 0 0 0
1049 1 6.481658532309863 -8.51616708968642 -5.732992114849017 0 0 0
1050 1 6.616345408755736 -10.188399828113607 -3.5226673598691836 0 0 0
963 1 7.997457537894304 -12.424292857642783 -3.4123829558008705 0 0 0
1051 1 8.20081365450976 -8.281140735946842 -4.108867684461929 0 0 0
1143 1 9.094885923606912 -11.137755961872857 -7.8260590546853726 0 0 0
1032 1 9.152358941045792 -12.919001291283772 -5.439254235257787 0 0 0
1052 1 9.461322277712116 -10.554482905481539 -3.9265740976683734 0 0 0
1145 1 13.321782918270943 -9.523960134441595 -8.598439437070382 0 0 0
1056 1 13.45757892986878 -11.2566714550042 -6.30063353320187 0 0 0
1811 1 10.39505406524639 -13.270117508213296 -7.6133920621065805 0 1 0
1033 1 10.657755976955498 -10.938419041338655 -5.932913483287923 0 0 0