LAMMPS data file via write_data, version 2 Aug 2023, timestep = 0, units = metal

1848 atoms
3 atom types

-13.801805341171653 13.801805341171653 xlo xhi
-13.35399065321933 13.35399065321933 ylo yhi
-14.738055768374451 14.738055768374451 zlo zhi

Masses

1 55.847
2 1.008
3 1.008

Atoms # atomic

174 1 -12.180875161167924 -11.97492487379304 -12.274057807603205 0 0 0
28 1 -0.03841320383657276 -1.1727059203445958 -8.980960375842464 0 0 0
141 1 -13.653752682662947 -10.323928860563331 -12.917671544079393 0 0 0
130 1 -9.700491958030554 -11.578421462193754 -13.019876108793456 0 0 0
626 1 -7.421483629797541 -11.067988055774963 -13.733313125460668 0 1 0
122 1 -8.054229947124693 -13.252604463908447 -12.258858120194617 0 0 0
123 1 -5.762772996542971 -12.673072565553014 -12.895787631913546 0 0 0
86 1 -5.12257273309198 -10.397697430130476 -12.012381812302879 0 0 0
295 1 -5.072475674500263 -10.398504330797888 -14.603111521376153 0 0 1
120 1 -3.432283973265937 -12.077513505044047 -13.650719870401103 0 0 0
294 1 -1.2638097830328778 -11.63436647033594 -14.567213998228947 0 0 1
85 1 -1.3063667000359818 -11.654584775569097 -12.056250318619439 0 0 0
142 1 -11.46562472378144 -9.827850758959203 -13.776049293436056 0 0 0
109 1 -12.887694938639191 -8.246855460974544 -12.068410602415764 0 0 0
99 1 -10.697645641147886 -7.589031983009814 -12.747526637928107 0 0 0
232 1 -8.323457793654324 -7.025989797716696 -13.67757362213773 0 0 0
91 1 -9.087978908347791 -9.32084519948939 -12.165425181084952 0 0 0
299 1 -9.135653594341534 -9.342044251390972 -14.541050991381471 0 0 1
92 1 -6.704315944542666 -8.79241862956291 -12.702663201521403 0 0 0
234 1 -4.466434682683037 -8.094590026420416 -13.549038936407406 0 0 0
87 1 -2.7692377312335754 -9.933158631152999 -12.730481410885393 0 0 0
235 1 -0.5299174205334793 -9.451906330184146 -13.506956351576012 0 0 0
285 1 -2.2229782898924615 -7.582319711865196 -14.229719546997933 0 0 1
233 1 -2.114468938931587 -7.773616252841336 -11.790607617771233 0 0 0
186 1 -13.69341860691889 -10.249781007980594 -5.671076552913554 0 0 0
226 1 -12.23055119909581 -5.868040020073017 -13.780083209953649 0 0 0
215 1 -11.524159261841683 -3.584459255575519 -12.82898038369971 0 0 0
237 1 -0.027405250442051 -1.085146717495622 -13.948186011956995 0 0 0
224 1 -7.790354072065649 -4.816047603514219 -12.742205663966866 0 0 0
282 1 -9.974711945943465 -5.302263136824376 -14.51223623851143 0 0 1
225 1 -10.036611322211854 -5.394406906858993 -11.928900195590478 0 0 0
280 1 -6.085152433421442 -6.501522832176589 -14.379911019588077 0 0 1
58 1 -5.358943707585956 -4.318177511837412 -13.530064872282244 0 0 0
230 1 -3.7258481097129774 -5.982407453833768 -12.597586283444873 0 0 0
231 1 -6.073374280343463 -6.564389045340836 -11.9299291783571 0 0 0
57 1 -3.017111978619104 -3.8893620822333936 -14.230996234534908 0 0 0
79 1 -1.2781763126790064 -5.496906011714984 -13.331458372210562 0 0 0
55 1 -0.7765223322213721 -3.2713324575438865 -12.452438386126742 0 0 0
56 1 -3.0259834618268666 -3.8762581542180854 -11.914758176370746 0 0 0
10 1 -13.209466310320627 -1.9955493905512025 -13.676628732794084 0 0 0
9 1 -10.827144419138985 -1.3294054470973542 -14.416120771205332 0 0 0
8 1 -10.844050195299962 -1.4460441003213322 -12.078769992951502 0 0 0
35 1 -9.195494388369589 -3.1467709800788306 -13.590115184712737 0 0 0
7 1 -8.537908233264854 -0.9822033761904354 -12.656611117920944 0 0 0
34 1 -7.025400052818716 -2.6396975307937325 -14.292151774725077 0 0 0
239 1 -6.359620115961048 -0.32769930546052173 -13.469513400288834 0 0 0
32 1 -4.684917588788798 -2.167693342659147 -12.704257666290191 0 0 0
33 1 -6.968571840185526 -2.687462996436036 -11.698982605617886 0 0 0
236 1 -2.4590772371473175 -1.6241021782540717 -13.384122699934508 0 0 0
293 1 -13.003967385699395 -8.058682017537564 -14.514833378192735 0 0 1
176 1 -12.058278988157326 -11.978086680605232 -9.89406593356135 0 0 0
185 1 -13.739301876933133 -10.264864933058215 -10.50921444802071 0 0 0
590 1 -8.181913992006969 -13.1803624993395 -9.722083007184757 0 1 0
164 1 -9.6882166642806 -11.443723706851191 -10.569779299477332 0 0 0
132 1 -7.51828600224355 -10.946716518320006 -11.27705039602855 0 0 0
133 1 -7.4741684783207605 -10.914139198497061 -8.789893426734844 0 0 0
124 1 -5.904319627577822 -12.644120193233586 -10.4749201667147 0 0 0
134 1 -5.254582296437453 -10.511098708434638 -9.5417699020217 0 0 0
125 1 -3.5316626746576283 -12.090386020260198 -11.165012958792799 0 0 0
126 1 -3.529471041642255 -12.159030740672057 -8.662409848678319 0 0 0
127 1 -1.319966470189966 -11.664703918543276 -9.498619747889837 0 0 0
143 1 -11.332964532247368 -9.788576858011568 -11.341645604090175 0 0 0
153 1 -12.916758662095626 -8.04066462230572 -9.773988390010246 0 0 0
100 1 -10.617157368035237 -7.590214024473556 -10.421777422049454 0 0 0
155 1 -11.443116717520804 -9.917487855467083 -8.783526446169741 0 0 0
144 1 -9.157247374205742 -9.316140415770775 -9.69897147383292 0 0 0
101 1 -8.355235763635251 -7.0410354617564925 -11.201820018833471 0 0 0
93 1 -6.814363409363334 -8.81862339117275 -10.336133417383195 0 0 0
94 1 -4.515086380930921 -8.176919230541824 -11.057462969716614 0 0 0
103 1 -6.11874479981437 -6.581424945168767 -9.53742081072323 0 0 0
88 1 -2.9549372499546216 -9.94294394381894 -10.242543104971778 0 0 0
96 1 -2.1734910916730854 -7.783367999602746 -9.318118800861587 0 0 0
89 1 -0.573755623618915 -9.482467709764528 -11.041455681536156 0 0 0
216 1 -12.296143489994007 -5.940249085486292 -11.265800436430801 0 0 0
214 1 -11.601755845829388 -3.773138135165752 -10.30634142143942 0 0 0
519 1 -8.25896286962649 -13.276342960988334 -2.4225345355802848 0 1 0
111 1 -9.91438001862949 -5.4189088997421635 -9.420876824561592 0 0 0
223 1 -7.592591224235512 -4.80102535756647 -10.224300644590794 0 0 0
222 1 -5.261280089191947 -4.393213490929682 -11.004008336744048 0 0 0
229 1 -3.7420145239252243 -5.982147223430535 -10.125993286612465 0 0 0
220 1 -3.2196331822086606 -3.80424324278094 -9.349494489041057 0 0 0
228 1 -1.3725624077239065 -5.561907442510571 -10.914455938923947 0 0 0
83 1 -13.145529567548559 -1.9106619388461379 -11.152366409096418 0 0 0
81 1 -10.788108455568535 -1.5479790040223165 -9.438556033565767 0 0 0
213 1 -9.293447402663812 -3.1348140896110337 -11.041622578262803 0 0 0
6 1 -8.574776553273043 -0.9552989335605684 -10.24853354916183 0 0 0
211 1 -6.999835907329299 -2.6608414537955447 -9.353713961888765 0 0 0
5 1 -6.283088828842375 -0.37495690739092247 -10.937753014937735 0 0 0
31 1 -4.79072538852523 -2.1902827669265807 -10.222999132589814 0 0 0
54 1 -0.8671751559505516 -3.3779712013595997 -9.952708355177247 0 0 0
30 1 -2.361081991736974 -1.7732424608455393 -10.867256336452094 0 0 0
45 1 -6.195822130969691 -0.594726653911307 -1.0725656593598298 0 0 0
175 1 -11.967248218378694 -11.924703907770889 -7.276352011198964 0 0 0
52 1 -4.546543604291932 -2.329237392831825 -2.6995844481368056 0 0 0
589 1 -8.168384823123137 -13.147833590543353 -7.213736282231338 0 1 0
165 1 -9.691846582752563 -11.53322903532144 -8.03219639444806 0 0 0
167 1 -7.383338919603285 -10.923205983037276 -6.410682896192103 0 0 0
166 1 -5.886583429967775 -12.566046868577404 -7.926853489827377 0 0 0
135 1 -5.072960801382065 -10.37348881822283 -7.071424134343118 0 0 0
168 1 -3.5682161030995108 -12.253520874954171 -6.186848122800058 0 0 0
128 1 -1.1863544781341488 -11.809243802318376 -6.926293741801179 0 0 0
145 1 -11.425146657954045 -9.787782449373044 -6.393689233001004 0 0 0
154 1 -12.966272968095423 -8.194053332514383 -7.298300489639041 0 0 0
37 1 -10.713993789609301 -7.635587019288795 -8.01005894240078 0 0 0
102 1 -8.454267211386991 -7.214021890141487 -8.698844757899794 0 0 0
178 1 -9.095893217810087 -9.315967913629107 -7.175608989377348 0 0 0
157 1 -8.283982484088693 -7.049974151828956 -6.191058985270056 0 0 0
146 1 -6.739481655909628 -8.702270514889548 -7.929143454159942 0 0 0
95 1 -4.646428598863597 -8.526715728987055 -8.628242175568605 0 0 0
148 1 -4.396398959400946 -8.319006630741665 -6.12524491527461 0 0 0
104 1 -5.983939977229991 -6.651159620846086 -6.969781985090771 0 0 0
136 1 -2.8372945481005534 -9.918140871813923 -7.755873804868776 0 0 0
90 1 -0.517810763928038 -9.499923020073819 -8.454524410573725 0 0 0
97 1 -2.1690256224171716 -7.896165391902568 -6.8834366508511025 0 0 0
138 1 -0.5684885836678522 -9.628379541474978 -5.927294232506288 0 0 0
110 1 -12.371171663196977 -5.900530442272547 -8.808267059315334 0 0 0
64 1 -12.301764114118724 -5.806987130060189 -6.380738178171338 0 0 0
63 1 -11.56617870628984 -3.762987279612176 -7.92331223845514 0 0 0
204 1 -0.0340418938103344 -1.0745052328414086 -1.7196718185512037 0 0 0
112 1 -10.09046638485028 -5.492530770710374 -7.110241446329071 0 0 0
113 1 -7.723840710998648 -5.104979472087624 -7.773795943292201 0 0 0
221 1 -5.459064471134406 -4.416474589056197 -8.522414773862302 0 0 0
105 1 -3.851023410494502 -6.275207159966836 -7.661140048382854 0 0 0
115 1 -5.293368475494274 -4.523411240514992 -5.912594323055041 0 0 0
219 1 -3.1191442878049465 -3.887172010325582 -6.867814614318669 0 0 0
227 1 -1.487934514616681 -5.554859358074272 -8.354710880283609 0 0 0
218 1 -0.8123940689251548 -3.360403576195166 -7.535499084343033 0 0 0
107 1 -1.5010769374596507 -5.541751550837578 -5.935818721357622 0 0 0
82 1 -13.032729198881139 -1.9635819062065707 -8.63240052167045 0 0 0
50 1 -13.058338224768965 -2.0727311094382177 -6.370221923588192 0 0 0
80 1 -10.782362433384623 -1.5214962913523795 -6.992898380656083 0 0 0
61 1 -9.207070770017745 -3.365587213371702 -6.1799242757487445 0 0 0
212 1 -9.324083281299274 -3.275801864631827 -8.64583047353404 0 0 0
78 1 -8.49475956175064 -0.9846533322943181 -7.590667750923744 0 0 0
210 1 -6.961292806670792 -2.7962614179630236 -6.980304205187692 0 0 0
4 1 -6.216107028287609 -0.4672823491540328 -8.382671842397869 0 0 0
209 1 -4.7144973650086985 -2.3050023355499345 -7.68903080650985 0 0 0
76 1 -6.310286814555208 -0.5610405482685579 -5.959116779140043 0 0 0
51 1 -2.263121967826061 -1.7495935640678333 -1.06884840206566 0 0 0
29 1 -2.4596821598513827 -1.859622670744935 -8.407591779481287 0 0 0
187 1 -13.649474420997755 -10.37237125921924 -8.040282999678475 0 0 0
27 1 -0.0961819906499457 -1.120517089392182 -6.683901072451603 0 0 0
197 1 -12.069268526134616 -12.005434525509745 -4.810902054409622 0 0 0
177 1 -9.61427489593529 -11.509315867589821 -5.59874510090194 0 0 0
179 1 -7.468751888553776 -11.083361451312005 -3.9177534150955626 0 0 0
200 1 -9.812586495696596 -11.529381310116387 -3.139400114216766 0 0 0
588 1 -5.860866448823801 -12.632205324757672 -5.516846871599045 0 1 0
180 1 -5.154648857054921 -10.471046436784938 -4.585920197245878 0 0 0
194 1 -5.907456817653459 -12.749011324776488 -3.1487348360755814 0 0 0
169 1 -3.568333233087202 -12.279486997100145 -3.617735065106533 0 0 0
170 1 -1.3658748921875397 -11.750195100475501 -4.393314386646507 0 0 0
188 1 -11.395527175203046 -9.774906011230904 -3.8877620470512095 0 0 0
12 1 -13.009238575097427 -8.109665700045532 -4.839427825134978 0 0 0
156 1 -10.721685710918404 -7.621605233610677 -5.457925288363388 0 0 0
14 1 -10.697353518566313 -7.566596842486247 -3.015200465727508 0 0 0
189 1 -9.099332882836277 -9.33650250529424 -4.708717036803629 0 0 0
158 1 -8.357542390550124 -7.008913591287903 -3.835321238588012 0 0 0
147 1 -6.754832294529386 -8.705621123179963 -5.404141906856429 0 0 0
149 1 -4.503941896951437 -8.386561471952383 -3.74452410305223 0 0 0
137 1 -2.885882347767124 -10.031287908880568 -5.320779766544451 0 0 0
150 1 -2.118252811122284 -7.818086814148114 -4.451439060297908 0 0 0
139 1 -0.5904385085629205 -9.574904368688351 -3.382725870619783 0 0 0
21 1 -12.177164291658181 -5.812332291287351 -3.852441269115973 0 0 0
62 1 -11.599752568362405 -3.682325262822486 -5.435609086649848 0 0 0
20 1 -11.608614815391466 -3.6351548970466556 -2.88555882189746 0 0 0
520 1 -8.143606943967391 -13.305147919654695 -4.813788765282506 0 1 0
26 1 -9.940349784107868 -5.446112740786104 -4.571528529887436 0 0 0
114 1 -7.619853979697214 -4.990968981162691 -5.3035499227330885 0 0 0
24 1 -7.6953816621920925 -4.902007123757574 -2.835062994618525 0 0 0
60 1 -9.33562622898621 -3.245496725367934 -3.7156833501447277 0 0 0
159 1 -5.898461957847978 -6.642942997683937 -4.507240769878189 0 0 0
116 1 -5.388809904941814 -4.4354935866415435 -3.446675854532094 0 0 0
106 1 -3.726098958181522 -6.086596185904695 -5.206937014472119 0 0 0
117 1 -3.0340518012289674 -3.776964177401892 -4.220915705489276 0 0 0
108 1 -1.4376779767256025 -5.649074341579381 -3.4470507745033796 0 0 0
217 1 -0.7931685496357659 -3.301992552642675 -4.93567036895598 0 0 0
49 1 -13.231778935747743 -2.01014629736296 -3.94791695973273 0 0 0
48 1 -10.932194542419047 -1.563523392314421 -4.448796893804225 0 0 0
77 1 -8.526807463260948 -1.099538853073172 -5.357090402732537 0 0 0
59 1 -6.983907304451673 -2.7725553277357733 -4.333067972384791 0 0 0
208 1 -4.707398796934385 -2.1422626623678855 -5.092841857964467 0 0 0
75 1 -6.112882173582883 -0.5337807941966961 -3.5420098124478105 0 0 0
205 1 -0.17367658605549963 -1.0753187357324556 -4.185946698856943 0 0 0
207 1 -2.4126582503315284 -1.602341570729541 -5.96987287443145 0 0 0
206 1 -2.3254385056044704 -1.621343332111218 -3.4078165107079066 0 0 0
39 1 -13.77671157165214 -10.257297997368077 -0.5746161031953481 0 0 0
199 1 -12.251561675183686 -12.064332473874744 -2.3797816585830933 0 0 0
41 1 -9.939304487204048 -11.614770481442363 -0.6618050377817113 0 0 0
202 1 -7.596438417708378 -11.029687722404603 -1.5797799864493367 0 0 0
73 1 -3.824896829936675 -0.10779008788287925 -1.8477198232669672 0 0 0
464 1 -6.0412054628910745 -12.700325498792022 -0.7910026216462391 0 0 0
181 1 -5.24539813654137 -10.686276374622187 -2.1536833694364095 0 0 0
195 1 -3.4965848403826296 -12.5235261097908 -1.1478497439817854 0 0 0
171 1 -1.1685374578145016 -11.641066825854862 -1.8141232334415243 0 0 0
182 1 -2.866469910400248 -10.084138754963568 -2.8242235048311795 0 0 0
183 1 -2.806606643025173 -10.30796432584226 -0.47480984124606707 0 0 0
40 1 -11.36104413627012 -9.743777639777406 -1.4749310038855974 0 0 0
13 1 -12.927910735588089 -8.103677610138398 -2.2709879697930475 0 0 0
15 1 -10.64844505299408 -7.699130692009603 -0.5645884425895069 0 0 0
191 1 -6.7108980301428 -8.846112388171651 -3.0447437563299466 0 0 0
190 1 -9.206401855890896 -9.369976133561284 -2.2312535913240765 0 0 0
16 1 -8.328945203407057 -7.09373133079214 -1.3052480558770405 0 0 0
192 1 -6.891926522357427 -8.890097827277263 -0.5435320225257119 0 0 0
193 1 -4.431661340830386 -8.437177514025842 -1.2378209380840115 0 0 0
160 1 -5.9723973692872905 -6.652195150812685 -2.018314593704158 0 0 0
184 1 -0.48089374303673615 -9.645490420643817 -0.7716146896385006 0 0 0
151 1 -2.1296666224882213 -7.936289046950543 -1.7452534230312011 0 0 0
36 1 -12.267205500436447 -5.959302878811835 -1.3938982500395216 0 0 0
19 1 -11.426122433796964 -3.6236067276418833 -0.4858866392517438 0 0 0
23 1 -7.676289604142958 -4.963885844501268 -0.3887105418778365 0 0 0
25 1 -9.954863716796714 -5.267333128100056 -2.0370495306444436 0 0 0
161 1 -3.6961341016444145 -6.291983354992425 -2.806839171151763 0 0 0
162 1 -3.796888212273128 -6.231492392663794 -0.2732942799885869 0 0 0
22 1 -5.2441379881552646 -4.557064545113693 -0.9754903169469831 0 0 0
1382 1 -0.7342567894743848 -3.3717499415899717 -0.18080315138464442 0 0 0
119 1 -0.6555929215046667 -3.336233478035828 -2.577635381952911 0 0 0
118 1 -3.0244076556674226 -4.138657168707766 -1.799878850657434 0 0 0
163 1 -1.4270543958688044 -5.747784716969848 -0.8933354337149133 0 0 0
44 1 -13.193271725059148 -2.1251237321344743 -1.4910940852389984 0 0 0
47 1 -10.785886920005254 -1.4298252482488554 -2.143378839021814 0 0 0
46 1 -8.519059044138736 -0.9662477042310638 -2.8824569797176416 0 0 0
18 1 -9.084968459277551 -3.124353006095431 -1.1643868096315604 0 0 0
435 1 -8.53925765622645 -0.8924051425449235 -0.36341070929746166 0 0 0
53 1 -6.87506825746688 -2.783872122053623 -1.970683688089169 0 0 0
433 1 -4.609454109712118 -2.2201106173354255 -0.2603172836703873 0 0 0
3 1 -3.9387739877449803 -0.03675014850017355 -9.34040902981512 0 0 0
710 1 -8.213111243276131 -13.081614108798341 -14.612822061627806 0 1 1
238 1 -0.018020158205160897 -0.9894278284274076 -11.439329350862408 0 0 0
38 1 -13.751908285908337 -10.356084475388837 -3.0624270144927213 0 0 0
963 1 -13.792480341043886 -4.223568029301523 -4.645773682182906 1 0 0
468 1 -12.231950246691092 -12.206788076769598 2.5065090599939204 0 0 0
1175 1 -0.15097119436677353 -1.0881660114106815 13.024837800068902 0 0 0
1801 1 -0.1494385292794682 -1.096467302803953 5.733866668345048 0 0 0
467 1 -9.933548649260135 -11.661837707467257 1.837298368307252 0 0 0
457 1 -7.6497892178372195 -10.995394780577586 1.0200594175014555 0 0 0
66 1 -12.269627698544854 -12.128184842823435 0.08866760229498638 0 0 0
841 1 -6.029709727450279 -12.630539222774301 1.724903647782881 0 1 0
425 1 -5.3096512344943605 -10.562137163815752 2.6939274736393735 0 0 0
203 1 -5.159994673966002 -10.606794778059818 0.24106532615012455 0 0 0
894 1 -3.651110542210212 -12.386552736042743 1.156340372070817 0 1 0
196 1 -1.2586984496034042 -11.952964233177225 1.0638668823971162 0 0 0
463 1 -2.874979109668825 -10.369316576870572 1.9564899786258714 0 0 0
461 1 -11.429798944072173 -9.952432340502538 1.0052013027557205 0 0 0
460 1 -10.673458514740265 -7.689668900215883 1.8393963131484767 0 0 0
1336 1 -12.828842712852653 -8.127192431339385 2.637744765449721 1 0 0
42 1 -13.058217391778326 -8.105580093096513 0.21153747062035677 0 0 0
458 1 -8.398813584185362 -7.1629125442072725 1.164882863898013 0 0 0
418 1 -9.15105689637081 -9.302046854051675 2.765548168378743 0 0 0
459 1 -9.181340217068357 -9.289397735663748 0.2821515498664322 0 0 0
416 1 -6.815662054374668 -8.706573258788985 1.9528139496252237 0 0 0
456 1 -4.4893570666222935 -8.430870518551895 1.172098261384999 0 0 0
255 1 -0.5173596431507512 -9.872227481924359 2.187540855602773 0 0 0
455 1 -2.2007134649047604 -8.039923092687332 0.6003609557064813 0 0 0
413 1 -2.0706483729874154 -8.00224738547208 3.1021664596393244 0 0 0
453 1 -12.171953928533 -5.940194082470107 1.1510722330181604 0 0 0
445 1 -11.46107779214069 -3.7410734622811397 1.954169887542605 0 0 0
451 1 -9.913048337193612 -5.563975554383112 0.23816137796336356 0 0 0
450 1 -7.648638376345014 -4.89975709929147 2.1307786601264347 0 0 0
452 1 -10.077195307918629 -5.50017991231152 2.7070803638208716 0 0 0
407 1 -5.953588901446266 -6.6651392004077605 2.8425356457162394 0 0 0
449 1 -6.063204629756212 -6.665271860113252 0.46465781738255174 0 0 0
440 1 -5.403746695105124 -4.283934101279421 1.4036178935485815 0 0 0
448 1 -3.671799212836836 -6.278059006169599 2.1423025319766467 0 0 0
439 1 -3.0254153700042963 -3.9639764638048725 0.5918803134910213 0 0 0
405 1 -1.5764184690623182 -5.657920798197346 1.4450245821999097 0 0 0
1368 1 -13.145430827149552 -2.0663445596730163 1.1234265886162103 1 0 0
437 1 -10.820900695687168 -1.4968722932939436 0.2794712122587981 0 0 0
444 1 -10.70110216361839 -1.4510433374712175 2.710907592393287 0 0 0
443 1 -9.14843715659583 -3.1656352295406975 1.231331806830724 0 0 0
392 1 -8.508218659471813 -0.9572496306916456 2.0483788958522737 0 0 0
441 1 -6.89277253296144 -2.6294699672428106 0.5486947782224494 0 0 0
434 1 -6.216576600478523 -0.4732826492814102 1.347349061674329 0 0 0
432 1 -4.5290785167658125 -2.1824106162911683 2.2202423221617202 0 0 0
201 1 -8.335586659415377 -13.257382381396663 0.021499776802505366 0 0 0
438 1 -0.7762424842738831 -3.5055272561421393 2.395048314882793 0 0 0
430 1 -2.3378316566925577 -1.6884878035561766 1.5217431722733359 0 0 0
429 1 -12.180161472964175 -12.013876897286774 5.022360259211471 0 0 0
897 1 -8.164603453454502 -13.162602442439065 5.032525143341871 0 1 0
420 1 -9.853027255895025 -11.44789928439957 4.24722577400502 0 0 0
465 1 -7.558192997168078 -11.059595869648064 3.456930310456965 0 0 0
269 1 -4.666535265577442 -2.25648441842387 14.386383542571014 0 0 0
895 1 -5.924075955875315 -12.586707686730236 4.166145353544735 0 1 0
424 1 -5.008215832985639 -10.564130198546312 5.090437706547771 0 0 0
414 1 -3.537934300642002 -12.31107975598906 3.498459869763334 0 0 0
423 1 -1.1711042328259254 -12.171998556838336 3.928996860010276 0 0 0
1325 1 -3.313451663481553 -12.201500092925327 5.831084122856343 0 0 0
411 1 -11.600726617928904 -10.034325875656783 3.4352804225208615 0 0 0
377 1 -12.938221675962751 -8.16862162061021 5.033035960257564 0 0 0
419 1 -10.796925038007961 -7.56974445103755 4.3176760702586705 0 0 0
375 1 -11.400523517189903 -9.784399421984217 5.841398124055022 0 0 0
428 1 -9.09870653103447 -9.272463407237069 5.177808221915171 0 0 0
409 1 -8.398834220767071 -7.1167518321956615 3.625843975217318 0 0 0
426 1 -6.842669947295846 -8.85503012923861 4.396967700774351 0 0 0
415 1 -4.439859486342693 -8.406082629564342 3.6697590140193377 0 0 0
417 1 -6.032268385951867 -6.592713370868841 5.29981078370135 0 0 0
371 1 -2.730861781356568 -10.073620210703247 4.25958057795193 0 0 0
250 1 -0.5399146794306002 -9.893750566344861 4.899641865033761 0 0 0
373 1 -2.071448724980769 -7.773207307088692 5.437752675412575 0 0 0
412 1 -12.1872629548317 -5.885393978042865 3.5650216899420215 0 0 0
402 1 -11.566678466107492 -3.71402023143054 4.380274313678292 0 0 0
368 1 -12.20814370985435 -5.940399183675329 5.866305988997318 0 0 0
410 1 -9.923718856850297 -5.303883472273553 5.235717124340766 0 0 0
408 1 -7.68166800644562 -4.859740934472178 4.476241405451592 0 0 0
398 1 -5.286867632743935 -4.484629637894608 3.805298752489744 0 0 0
406 1 -3.8007635321749103 -6.10839680164287 4.5519673543875 0 0 0
396 1 -3.0662513738809043 -3.9633375796996404 3.0337429594208665 0 0 0
395 1 -2.9348523925210035 -3.9865464412418063 5.430486227409549 0 0 0
404 1 -1.4732942806417313 -5.726727396120846 3.9403023387008815 0 0 0
252 1 -0.7718630956877881 -3.3977107934171595 4.761674778856651 0 0 0
446 1 -13.079590317229272 -2.010247990751173 3.5526939347974036 0 0 0
394 1 -10.911721264759318 -1.4841029271440735 5.170736311940431 0 0 0
442 1 -6.974763929868471 -2.6798702118393685 2.963058723347249 0 0 0
400 1 -9.224782387809867 -3.2333777626427125 3.6246063640914414 0 0 0
401 1 -8.682399448660155 -1.0475978817323526 4.548010443454377 0 0 0
303 1 -4.7094155247753395 -2.0568449813255842 12.002144831254256 0 0 0
399 1 -6.941589975107214 -2.6479654953082825 5.3222982326178006 0 0 0
397 1 -4.6149488276815855 -2.1847290558448584 4.610504473236965 0 0 0
390 1 -6.194387607377698 -0.41176406525788956 3.765864660689445 0 0 0
388 1 -2.423187578949298 -1.6612013308092557 3.9561735502596242 0 0 0
839 1 -8.183504207570493 -13.229612581509777 2.547875558727764 0 1 0
1270 1 -13.777113309644541 -10.424763256683205 6.58785900812622 1 0 0
386 1 -12.074758804792824 -11.930386904605669 7.397918430948067 0 0 0
382 1 -7.372810719448392 -11.000229452854871 5.879600124991576 0 0 0
339 1 -8.053225585111232 -13.127191918989984 7.398273118974565 0 0 0
384 1 -9.870100831695598 -11.479566338630676 6.725865407420763 0 0 0
774 1 -7.349314878775819 -11.016084092686857 8.44625537475315 0 1 0
772 1 -5.704996661928924 -12.65634797519889 6.7779943806858896 0 1 0
337 1 -4.944250362438424 -10.541373207672594 7.547079679083449 0 0 0
380 1 -3.366242035496425 -12.07651580171091 8.276713679319485 0 0 0
251 1 -0.8455935709849953 -11.419205216304542 7.302061571253105 0 0 0
385 1 -11.417854312691265 -9.844119430560259 8.386087072256728 0 0 0
378 1 -12.958196573582708 -8.09980019508074 7.536133014165252 0 0 0
376 1 -10.649465606160712 -7.561397590988805 6.791179555521534 0 0 0
366 1 -8.35037495497967 -7.169721870859841 5.932803791120026 0 0 0
383 1 -9.1148668662074 -9.394390119213387 7.613212482226221 0 0 0
374 1 -8.278073289685665 -6.995605969704696 8.472923220003686 0 0 0
362 1 -4.385224495062058 -8.351502474567589 6.047066776962048 0 0 0
848 1 -6.911003368076362 -8.913131166610896 6.775534231545418 0 1 0
372 1 -4.491114666407196 -8.30580775639077 8.456183115410287 0 0 0
381 1 -2.4142625793582724 -9.880488326920242 6.717401157362666 0 0 0
370 1 -2.276186219076134 -7.709468454451494 7.825121980673568 0 0 0
247 1 -0.440347632140913 -9.330730019621914 8.52853163411974 0 0 0
369 1 -12.204558141083634 -5.858388288989748 8.326377282477758 0 0 0
359 1 -11.644898751378872 -3.611818494559193 6.812776363403387 0 0 0
367 1 -9.974025539666066 -5.467149278720238 7.517374823987513 0 0 0
365 1 -7.595964112652561 -5.005469322940874 6.895015663776444 0 0 0
364 1 -6.142247104182901 -6.7996108794204115 7.70017987772367 0 0 0
355 1 -5.334470421886845 -4.366906283080205 6.130955674505415 0 0 0
353 1 -3.891505518475535 -6.062131238204706 7.06179590326623 0 0 0
354 1 -5.382702217968863 -4.417366775838422 8.612062128312875 0 0 0
249 1 -1.4423168420619898 -5.513545792589752 6.3595630199596975 0 0 0
352 1 -2.967760570054015 -3.838318569489161 7.922886519890582 0 0 0
246 1 -1.4691040330172456 -5.568527570103829 8.764429184896745 0 0 0
403 1 -13.208391030002952 -1.908071065835495 6.089449817629333 0 0 0
702 1 -13.185267400411746 -1.8902955505989105 8.51560272836577 0 0 0
358 1 -10.921192091002283 -1.400160055506559 7.718840123331319 0 0 0
357 1 -9.26489014081533 -3.2387255438077904 6.0802756444014 0 0 0
356 1 -9.320677384626771 -3.1500739314111854 8.547755567072183 0 0 0
349 1 -8.589165440037906 -1.0164162935812886 6.912167385242345 0 0 0
347 1 -6.987274399313272 -2.6828358767087757 7.802003237378237 0 0 0
345 1 -4.731435947284075 -2.1578414003135524 7.084480663865062 0 0 0
886 1 -6.306660765751742 -0.48599786066910866 6.284603951496312 0 0 0
348 1 -6.2323940126937165 -0.4662320781679412 8.823720508006929 0 0 0
1302 1 -0.5994561176671329 -3.3300219835232134 7.20370047440268 0 0 0
387 1 -2.342371185679747 -1.7249795805393688 6.332634733383699 0 0 0
262 1 -6.326959235792271 -0.4312258183248101 13.558508668597067 0 0 0
1218 1 -13.526070304268748 -10.104908151831882 11.591595327744955 1 0 0
300 1 -11.94601711365812 -12.103120547686546 9.830812516626455 0 0 0
334 1 -13.71717135329308 -10.234681154616778 9.05275261722738 0 0 0
341 1 -9.73904829555602 -11.584199233683938 9.206452468522155 0 0 0
340 1 -7.454336572781053 -10.82307942606533 10.809410489286911 0 0 0
298 1 -9.654422261239938 -11.406494867716916 11.631453222831428 0 0 0
794 1 -8.000461638571345 -13.126578144914136 9.985347089347552 0 1 0
773 1 -5.698662432821468 -12.628758352409985 9.230985091848307 0 1 0
296 1 -5.796275711905491 -12.481444393108259 11.60676742208074 0 0 0
338 1 -4.973750678278366 -10.340318100503616 9.92856852118133 0 0 0
706 1 -3.4884917752924274 -12.018786197778393 10.758159559151526 0 1 0
1278 1 -1.0933258828912482 -11.41796238149247 9.944438073426788 0 0 0
332 1 -11.26290459501698 -9.640595386454548 10.790069042474023 0 0 0
335 1 -12.902768299411056 -8.005658582689886 9.984597643914366 0 0 0
325 1 -10.655945761540215 -7.5982114704346895 9.154235323224714 0 0 0
333 1 -10.721619116217873 -7.483672428782132 11.72127340534296 0 0 0
323 1 -9.012731049975782 -9.232231590696234 10.087954868752796 0 0 0
322 1 -8.353901772873293 -7.141839753930556 10.915907022767442 0 0 0
330 1 -6.74544726315806 -8.833578943360425 9.256009910031711 0 0 0
319 1 -4.415914650266551 -8.16361296989075 10.938858725588197 0 0 0
321 1 -6.710576082728056 -8.729084300657892 11.739902143409562 0 0 0
328 1 -2.692610931170904 -9.819808947208871 9.177281609026814 0 0 0
327 1 -0.531105185260806 -9.300608304268884 10.973978715039571 0 0 0
245 1 -2.148205410660559 -7.646344807183321 10.241481127196927 0 0 0
286 1 -2.7211649096357373 -9.887642173536069 11.62495068903155 0 0 0
326 1 -12.26440740591864 -5.75035240459721 10.764945239327297 0 0 0
316 1 -11.530517026878794 -3.509785988939999 9.291084209225957 0 0 0
314 1 -9.958101701487218 -5.37352669236041 10.02363508845238 0 0 0
312 1 -7.695934453835095 -4.813594105870999 9.254818954464316 0 0 0
363 1 -6.167399947263455 -6.562448520151276 10.050147347453777 0 0 0
311 1 -5.394498976746933 -4.334513536089798 11.107237981450936 0 0 0
310 1 -3.880006240569193 -5.8928728662741126 9.523226505675357 0 0 0
302 1 -3.0831746107774194 -3.920573375153097 10.426569634025007 0 0 0
309 1 -1.3908002892709064 -5.496239094064004 11.309533695204731 0 0 0
317 1 -13.036592344440471 -1.9159049948409201 10.898505339509068 0 0 0
308 1 -10.698196678206845 -1.3999396167982994 10.264471986831726 0 0 0
315 1 -9.302805575728165 -3.106026390924111 11.053732233929697 0 0 0
306 1 -8.571011703953914 -0.9334451477424004 9.512497013714196 0 0 0
304 1 -6.957404139231525 -2.6051621774352096 10.224900264724518 0 0 0
346 1 -4.68616880193226 -2.2653401236832487 9.523926757610205 0 0 0
305 1 -6.298673757212925 -0.33185228349045204 11.196266669974452 0 0 0
344 1 -2.341462896101392 -1.5457843414943593 8.819471187486005 0 0 0
244 1 -0.8018456361938764 -3.3065022757731235 9.614431807787682 0 0 0
301 1 -2.347205024165614 -1.5742990790091227 11.327389241609481 0 0 0
462 1 -13.767920137114302 -10.39305212184895 1.7423331707795313 0 0 0
342 1 -12.060096218988678 -11.919851884897463 12.298029053063818 0 0 0
98 1 -13.651084367815075 -10.292831463064841 14.025307603617339 0 0 -1
711 1 -8.185983462826535 -13.25160153341296 12.37309516000655 0 1 0
131 1 -9.637285591493225 -11.459482776211395 13.872966352907639 0 0 -1
297 1 -7.440812820820044 -11.052969381175135 13.285347862210685 0 0 0
1193 1 -0.05477184005597202 -1.1029569288786156 3.1362527458310616 0 0 0
708 1 -5.708636197871474 -12.610915130845523 14.036625221210933 0 1 0
329 1 -5.030132298276751 -10.351160814148853 12.255665194282855 0 0 0
288 1 -3.412563324878981 -11.919045510692845 13.273215958125359 0 0 0
242 1 -1.122656744481187 -11.584485513277217 12.539273858287974 0 0 0
290 1 -11.320853734271974 -9.660377787852738 13.249968370603167 0 0 0
292 1 -12.860519491727691 -7.94019896330312 12.46774307834528 0 0 0
291 1 -10.655002977088344 -7.621270438596838 14.180555042024391 0 0 0
1249 1 -0.8087251275036689 -3.288479226597353 12.055063182843735 0 0 0
331 1 -9.00908494478336 -9.265790700496163 12.50899009064933 0 0 0
281 1 -8.286303691382711 -7.043499022392465 13.268459946595264 0 0 0