LAMMPS data file via write_data, version 2 Aug 2023, timestep = 0, units = metal

1873 atoms
3 atom types

-14.07870038431036 14.07870038431036 xlo xhi
-14.22374098742179 14.22374098742179 ylo yhi
-13.72086347765955 13.72086347765955 zlo zhi

Masses

1 55.847
2 1.008
3 1.008

Atoms # atomic

56 1 -12.776188018860122 -11.987158786718986 -13.19486946227093 0 0 0
205 1 -11.603950875037096 -12.653599443104843 -10.599581337939942 0 0 0
206 1 -13.837065985538224 -11.701780291431223 -10.9279178167545 0 0 0
70 1 -0.02405237481518263 -13.766162334283305 -1.0497223306650678 0 0 0
204 1 -10.487513376274535 -12.96782695504578 -12.773640684893774 0 0 0
208 1 -8.167302050124828 -13.738271017832187 -12.380175004720503 0 0 0
32 1 -6.983117997916537 -12.313621070373651 -10.84600481432862 0 0 0
93 1 -8.012922577895914 -11.558984901398308 -13.361988184855536 0 0 0
91 1 -5.712352405024886 -12.635697282422246 -12.999849725819217 0 0 0
36 1 -3.462294755899549 -13.444799537215628 -12.469649019887946 0 0 0
34 1 -4.661298206500243 -13.21183576786516 -10.374610046847568 0 0 0
1162 1 -1.2500311874243515 -12.26600284128354 -13.21007964065066 0 0 0
46 1 -2.3127804719229754 -11.895581390251927 -11.004636653896132 0 0 0
41 1 -13.690671669990367 -9.677878163881438 -12.212545077950287 0 0 0
40 1 -11.46172744323639 -10.436609846282892 -11.550905520952455 0 0 0
203 1 -9.082368534728548 -11.281369830922047 -11.077547620008808 0 0 0
25 1 -9.012357957127612 -9.229243671807398 -12.234238526899086 0 0 0
87 1 -6.622489450480342 -10.053157799061617 -11.862310538538365 0 0 0
86 1 -4.462120032898376 -11.07506918920106 -11.416424863504112 0 0 0
117 1 -4.338928426432236 -8.82238155960059 -12.604998755769214 0 0 0
1873 1 -1.4868650529734175 -2.006562771488131 -1.992755518178841 0 0 0
80 1 -2.08308069358341 -9.693781292987747 -12.12964465719612 0 0 0
220 1 -13.367305252552285 -7.280156199238701 -13.06353014016911 0 0 0
28 1 -12.298942227956552 -7.835159246324854 -10.490111241113867 0 0 0
54 1 -11.365272970130391 -8.140526293749424 -12.632932985096996 0 0 0
221 1 -12.098198402698047 -5.43577618813941 -11.442157316035638 0 0 0
38 1 -9.901033596184204 -6.642315854274144 -10.992919014587423 0 0 0
111 1 -8.841109120820771 -7.1080439032072436 -13.212247965565755 0 0 0
230 1 -10.621940238929987 -0.06293360254177571 -7.366367251720056 0 0 0
14 1 -7.663402419623052 -7.667494673717278 -10.675348991149232 0 0 0
89 1 -6.606495536539529 -7.932690938212648 -12.943555277622464 0 0 0
116 1 -5.322284725197555 -6.230823954939044 -11.358772202311034 0 0 0
122 1 -3.0729191363467443 -7.353946430146736 -11.059729161953719 0 0 0
113 1 -4.193001528435325 -6.569771667352167 -13.578299875546229 0 0 0
118 1 -1.9839151755164188 -7.408376012445681 -13.15358260474192 0 0 0
1036 1 -0.5706069326873386 -5.961585545733209 -11.65636449113694 0 0 0
1155 1 -0.7875853494378688 -8.255752882828443 -10.598186691894586 0 0 0
222 1 -12.03728792270666 -3.400048367648811 -12.751586863928296 0 0 0
1137 1 -13.223750517416832 -3.070431496467277 -10.242888403803967 1 0 0
39 1 -9.777014623266258 -4.510487901893743 -12.188647064638412 0 0 0
114 1 -7.5018112057741835 -5.372066039039547 -11.737121824861939 0 0 0
292 1 -7.219684115255803 -3.1017843762048436 -12.801289658405913 0 0 1
223 1 -8.547426255461078 -2.983528071980608 -10.584073801932412 0 0 0
98 1 -5.019400774192249 -4.047270719151728 -12.421415647177575 0 0 0
123 1 -2.8190860694140127 -5.031762542363582 -11.945349691587332 0 0 0
244 1 -0.18644749848643904 -3.732568197129682 -12.60805350863363 0 0 1
128 1 -1.388544493545556 -3.6540804268289993 -10.459282926343853 0 0 0
308 1 -2.4836932853657014 -3.009431029433049 -12.98744115430322 0 0 1
976 1 -13.023431162142067 -0.9624079106106311 -11.424815164198993 1 0 0
457 1 -10.598377266527939 -2.762297606285758 -1.443584401186433 0 0 0
213 1 -10.641942147927464 -1.9540788897325143 -11.020853671412237 0 0 0
322 1 -9.539774167377775 -2.329717253093948 -13.233857731684365 0 0 1
214 1 -8.35546758825635 -0.7645190152866821 -11.843565441276743 0 0 0
99 1 -6.211586654729334 -1.5182377206970017 -11.152002628510786 0 0 0
101 1 -3.7484150009247372 -2.60036232767105 -10.852935084604526 0 0 0
104 1 -3.5116018496427834 -0.4003939509665848 -11.874963558719696 0 0 0
300 1 -4.906462313445459 -1.866070449969305 -13.388259510809688 0 0 1
106 1 -1.1777613055287688 -1.2544494302292826 -11.456076125850826 0 0 0
991 1 -0.050512892478964844 -12.897416264560178 -10.669280767471635 0 0 0
173 1 -12.831191543863744 -12.463588268580715 -8.435971106589523 0 0 0
85 1 -3.39264007018971 -11.30848952470181 -13.659271073677063 0 0 0
171 1 -9.325378490296565 -13.554798950393229 -10.152159697799686 0 0 0
174 1 -10.452514830902262 -13.323498221958994 -8.016363493096637 0 0 0
200 1 -7.948329441726408 -12.022103650476186 -8.592504986419442 0 0 0
164 1 -5.663904886666181 -12.895355933046822 -8.027240422814224 0 0 0
44 1 -3.3270514153459914 -11.764635646127243 -8.804836752828459 0 0 0
22 1 -3.4482397360596533 -13.983151766807005 -7.579971154957233 0 0 0
699 1 -8.122047899864182 -1.4407235980178577 -2.07687817914476 0 0 0
35 1 -1.0446561804866832 -12.712831363286806 -8.329164485041956 0 0 0
201 1 -12.45230388433929 -10.227003669520828 -9.39095383907988 0 0 0
167 1 -13.560579861144403 -9.81024179625054 -7.143402373556122 0 0 0
27 1 -11.146744741990197 -8.532380716162534 -7.89513332185729 0 0 0
26 1 -10.065546841985864 -8.805962924521806 -10.134368273732306 0 0 0
199 1 -10.256544239503471 -11.005459445005249 -9.067036795407326 0 0 0
192 1 -8.905032024444044 -9.490528423462202 -7.534857563065765 0 0 0
198 1 -7.77692478796332 -9.79809197513086 -9.68871732303764 0 0 0
191 1 -6.5480019242127465 -10.389492894053019 -7.051767497955081 0 0 0
115 1 -5.341695122212494 -8.51751022289164 -10.403292219139672 0 0 0
88 1 -5.592039084190354 -10.684028445422577 -9.28129236143814 0 0 0
82 1 -3.112516937027438 -9.503353132611778 -9.962093207614435 0 0 0
83 1 -4.217236625451257 -9.25041294729202 -7.887777097951738 0 0 0
81 1 -0.9349328397526158 -10.52315700926287 -9.445740160636472 0 0 0
49 1 -1.9569130739433636 -10.06368975970372 -7.230919253192982 0 0 0
1033 1 -13.223009159390191 -7.53764049336933 -8.110927375892938 1 0 0
17 1 -10.919708182538235 -6.330202817991466 -8.801618577490542 0 0 0
15 1 -8.626153504908956 -7.205628655177124 -8.427333541304197 0 0 0
84 1 -6.360917346461076 -8.233685405548828 -8.256035828156614 0 0 0
120 1 -6.406881745803107 -5.947878952549964 -9.209045536197443 0 0 0
186 1 -7.504267286808458 -5.628465645247651 -6.94588918876665 0 0 0
77 1 -4.059964516586341 -6.960801062256658 -8.981206753953558 0 0 0
1156 1 -1.8197596191770966 -7.977614699500618 -8.279987040104782 0 0 0
127 1 -1.7677539837625602 -5.794594323023448 -9.50295666987942 0 0 0
224 1 -13.012315873848854 -5.158503130698875 -9.081741184352456 0 0 0
231 1 -12.05619211842717 -3.7042756585334438 -7.445007011525728 0 0 0
226 1 -10.881721151026758 -4.0249868238274775 -9.808008874348014 0 0 0
7 1 -9.868569187033305 -4.797062924234648 -7.291584202609229 0 0 0
228 1 -8.675075296502452 -5.2180293774233615 -9.551319945807784 0 0 0
119 1 -6.154159598202451 -3.764969196830373 -10.198272115979531 0 0 0
233 1 -7.470726319438205 -3.611471373914002 -8.079554394105854 0 0 0
121 1 -3.84682901519664 -4.753629992563967 -9.852046168660927 0 0 0
125 1 -4.987605855018083 -4.515738798184273 -7.678346197404063 0 0 0
74 1 -2.760380530272476 -5.440521593078854 -7.245143281881458 0 0 0
126 1 -2.6239305527365904 -3.363034321956448 -8.246553093798992 0 0 0
986 1 -0.4778383967102702 -4.316772776344241 -7.998343358922499 0 0 0
225 1 -11.783272169309512 -1.597558408782092 -8.71035569968695 0 0 0
207 1 -14.028340281869246 -13.939989583157079 -9.975774032456693 0 0 0
1324 1 -11.819533566907168 -1.234653887153648 -13.682989341140296 1 0 1
466 1 -6.076089660676324 -2.4145310649224268 -1.6344394009001029 0 0 0
232 1 -9.534082016134715 -2.572135802102256 -8.329071424100029 0 0 0
227 1 -9.499319849909943 -0.4148903868197813 -9.52378267212928 0 0 0
102 1 -7.25331925846872 -1.3791571285371518 -9.041534880895806 0 0 0
686 1 -8.32795299642812 -0.9579555857195494 -6.889931810478228 0 0 0
103 1 -4.731872811750483 -2.2253765285943814 -8.635422288409082 0 0 0
107 1 -3.5417500796428207 -0.6956982180222688 -7.067601678794639 0 0 0
591 1 -8.232456870985907 -14.19627366482523 -7.562466942990778 0 1 0
109 1 -0.16683622259501085 -2.0872220922513858 -8.94202350489536 0 0 0
105 1 -2.3922382095940566 -1.0356265310175718 -9.240792697130383 0 0 0
1536 1 -11.51378654538279 -13.02780677783475 -5.935183051624937 1 1 0
151 1 -12.722583992570481 -12.727808139937226 -3.5723886403430907 0 0 0
1106 1 -13.805713969322637 -12.137202334397191 -6.16274322719491 1 0 0
165 1 -9.031293953878203 -11.664482485159684 -6.477847777128755 0 0 0
150 1 -9.22657145261258 -13.772378065836145 -5.393529351675436 0 0 0
175 1 -10.240425219122848 -11.49082704629354 -4.1265135509320015 0 0 0
147 1 -7.9199492793267785 -12.389725386294181 -3.785521482858897 0 0 0
599 1 -6.89900223754462 -12.733647467439125 -6.019606566618796 0 1 0
146 1 -5.756872603629477 -13.206353025711222 -3.352071171593341 0 0 0
144 1 -3.30556791883253 -12.096310721268813 -3.9866716877723682 0 0 0
145 1 -4.518307824358979 -13.655208886090936 -5.565698422289016 0 0 0
33 1 -4.322132736988728 -11.323890527482614 -6.6516876290667 0 0 0
58 1 -2.1272051443647886 -12.304827946545647 -6.227171130681271 0 0 0
57 1 -1.1129060238139932 -12.933337629215046 -3.5721247388049093 0 0 0
194 1 -11.37581254099556 -10.769719473625688 -6.8443627070654784 0 0 0
169 1 -12.41218662009734 -10.459328976235298 -4.700739081384267 0 0 0
193 1 -9.790756109283777 -9.294170433230306 -5.275249341334897 0 0 0
161 1 -7.728032487051926 -10.258502110339942 -4.9451721049560025 0 0 0
166 1 -5.509343306935476 -11.082221575061057 -4.491609072777388 0 0 0
47 1 -5.249683576795826 -8.820091855707455 -5.674012760453731 0 0 0
37 1 -3.158802759245729 -9.726042986793694 -5.208719133817384 0 0 0
63 1 -1.0341937895978823 -10.785089493012922 -4.662659327694271 0 0 0
29 1 -12.026709688987202 -5.944422442820651 -6.529840883043942 0 0 0
18 1 -12.238557676143788 -8.300964393308968 -5.564222181878902 0 0 0
196 1 -13.46243985240669 -7.973685878362935 -3.4226213054897165 0 0 0
10 1 -13.172295131282082 -5.5769384905201065 -4.447262452937604 0 0 0
188 1 -10.970181564493037 -6.668051651562128 -4.210214173048511 0 0 0
16 1 -9.846078802978496 -7.0477009194541465 -6.238663815779967 0 0 0
187 1 -8.694295852960444 -7.720675311141419 -3.790749861099096 0 0 0
185 1 -7.584566209395976 -7.891987713131735 -5.862595314023042 0 0 0
182 1 -6.3781261800890805 -6.344428195153136 -4.348611367748731 0 0 0
79 1 -5.162197966583777 -6.706210098789986 -6.745627405881106 0 0 0
50 1 -4.110006463145329 -7.320873984357496 -4.153189328803004 0 0 0
78 1 -2.8808682870439117 -7.612380139757398 -6.151854171627322 0 0 0
1013 1 -0.49723470450639873 -8.656225089444147 -5.822078945761249 0 0 0
1147 1 -0.5782477386190639 -6.458125658746976 -6.648215552168123 0 0 0
75 1 -1.7091360976245387 -6.112752887731684 -4.550268526578469 0 0 0
683 1 -12.990834165977523 -3.341006078003522 -5.394158236567712 0 0 0
9 1 -10.861461924787864 -4.434914415243245 -5.044641999732807 0 0 0
8 1 -9.464538684569774 -2.8202644238135743 -3.5726845205531816 0 0 0
183 1 -8.651171508298077 -5.553350551199278 -4.8316225705027485 0 0 0
2 1 -8.437183660766706 -3.231224448830041 -5.829923594685056 0 0 0
6 1 -6.095130587707031 -4.342174223683227 -5.504481964329456 0 0 0
76 1 -3.933931799517822 -5.272142717885956 -5.035592782836398 0 0 0
129 1 -3.8546841963065077 -2.960346849817265 -6.171449539450652 0 0 0
130 1 -1.416492416009108 -3.8579456269530965 -5.7495636872334215 0 0 0
73 1 -2.6365225243823236 -3.700010049626716 -3.6445517888092347 0 0 0
100 1 -4.759147792806166 -0.1822272388440087 -9.832407747188078 0 0 0
229 1 -12.879438818192368 -1.1575333384154565 -6.494075135941733 0 0 0
5 1 -11.813976352784515 -1.9275950243932574 -3.9313052256252483 0 0 0
691 1 -9.436164088734028 -0.7634193542856735 -4.668303804219439 0 0 0
685 1 -10.595249083996423 -2.213701203307888 -6.149586898437694 0 0 0
124 1 -6.109893510542254 -2.062160892820506 -6.559793415213136 0 0 0
700 1 -7.150696441772729 -1.7239249956931832 -4.4230052826638815 0 0 0
1 1 -4.99945442070635 -2.668382059359544 -3.925386708869807 0 0 0
234 1 -4.735531723102792 -0.36304716444506724 -4.96246206098373 0 0 0
1462 1 -0.18159523821460866 -2.4365368897765354 -4.174318889477487 0 0 0
131 1 -1.1167960053706576 -1.7990098960473464 -6.745778425770973 0 0 0
572 1 -2.4179652598208055 -1.4084001782317106 -4.729068508313947 0 0 0
1642 1 -0.025458063736634173 -0.5589787441806813 -0.5337266543144281 0 0 0
1119 1 -13.845080452699998 -12.349377519685131 -1.4414003171275258 1 0 0
149 1 -11.650546000819627 -13.206692558211648 -1.069965746999154 0 0 0
594 1 -10.523909931501096 -13.775446499420926 -3.1319833032510402 0 1 0
533 1 -9.162323057546335 -12.074896772745033 -1.7111101379057274 0 1 0
532 1 -6.869371513559864 -13.035745340313815 -1.350429467245272 0 1 0
431 1 -8.61913357342827 -5.845660407329907 -0.10795319306815898 0 0 0
530 1 -4.7343635883516 -13.815526055490743 -0.9347642319573595 0 1 0
134 1 -4.438968913626008 -11.657621811991476 -1.756866793683912 0 0 0
69 1 -2.194584970863273 -12.756744197797994 -1.4962763060330246 0 0 0
1124 1 -13.539244793264967 -10.185331553835095 -2.4885636946778824 1 0 0
168 1 -11.282115501754399 -11.12249490933814 -2.105052938480508 0 0 0
163 1 -12.237488793724058 -8.656189020882959 -0.9721208192714137 0 0 0
195 1 -11.171514981753402 -9.009457189559871 -3.1550183252125326 0 0 0
731 1 -4.713202357518 -0.8042359326039499 -0.340813474978523 0 0 0
142 1 -8.835998862121784 -9.829277570854632 -2.727177124789213 0 0 0
162 1 -9.94813481153201 -9.576453050627618 -0.5724498614953522 0 0 0
140 1 -6.673934414854851 -10.800165598936564 -2.4039485527653746 0 0 0
135 1 -7.880707899671502 -10.640691157146595 -0.08495031518868323 0 0 0
155 1 -6.447368598576235 -8.605284370980705 -3.384677314462687 0 0 0
141 1 -5.438199278550693 -9.283358454660512 -0.6639223137457311 0 0 0
139 1 -3.0857007111473713 -10.16608209998544 -0.30407873627045134 0 0 0
159 1 -4.286449590430568 -9.554580028804335 -3.052344522688431 0 0 0
61 1 -2.01465186943137 -10.448867784376537 -2.5323596132688593 0 0 0
64 1 -0.6764545325046587 -8.878457539736997 -0.9329191689207601 0 0 0
701 1 -3.6283900647949796 -1.1288605885337137 -2.583680469211183 0 0 0
190 1 -12.180533894997106 -6.498960766397191 -2.022756446925783 0 0 0
1641 1 -5.931793179569009 -0.25041666709228494 -2.859379010178394 0 0 0
455 1 -9.826988568157109 -7.3817732187534935 -1.5854591894959 0 0 0
160 1 -7.568551741589479 -8.38608543956935 -1.264413189505678 0 0 0
456 1 -7.4843760042431295 -6.126253901887159 -2.339272013196906 0 0 0
153 1 -5.314837342152648 -7.123572160468343 -1.7342267101486026 0 0 0
158 1 -2.967728348845185 -7.963348994627979 -1.494082556649202 0 0 0
48 1 -1.768323461704469 -8.288779614050668 -3.6291598840574366 0 0 0
51 1 -2.8386482360784946 -5.750633877502585 -2.418367728822382 0 0 0
1012 1 -0.6624151752053091 -6.681507792570694 -2.020498871388858 0 0 0
462 1 -13.094655002940772 -4.022156156264765 -0.8465226074484367 0 0 0
4 1 -11.961241137555449 -4.173302114126773 -2.8894969700782926 0 0 0
463 1 -10.925858856042911 -4.970131761309563 -0.5218603641374315 0 0 0
184 1 -9.722901970510755 -5.1828819762214575 -2.6088930702980946 0 0 0
465 1 -8.48270861012585 -3.717531650108686 -1.1524337683922656 0 0 0
3 1 -7.342343773401611 -3.931867912450569 -3.3047294207720164 0 0 0
254 1 -6.161998294441643 -4.678329814106579 -0.6839057933963062 0 0 0
272 1 -3.7641104229420517 -3.2763369894970733 -1.3058620026453838 0 0 0
181 1 -5.024183042683376 -4.817309930297494 -2.883047990973555 0 0 0
442 1 -3.9036768924203393 -5.62438264568177 -0.2596087310534667 0 0 0
449 1 -1.4342126512142919 -4.259773944050103 -0.9496163234194483 0 0 0
1136 1 -0.3713217896241865 -4.594936648244408 -3.1668377744775 0 0 0
12 1 -12.955561500620423 -1.6412886746724524 -1.775520057138257 0 0 0
859 1 -11.803978684503143 -0.15963993753476302 -0.3114708729486093 0 0 0
689 1 -10.575589231017055 -0.2978741303441623 -2.459518330145679 0 0 0
215 1 -13.930250994828134 -0.5378922360541321 -9.21926484079006 0 0 0
210 1 -12.952922824212708 -14.132106068241697 -12.175938693176828 0 0 0
284 1 -11.03800646148543 -5.969001936889786 -13.697556828222085 0 0 1
549 1 -12.938069033229084 -13.036725267204433 1.1549091737921149 0 1 0
356 1 -11.491350900573078 -11.448980993951844 2.723082918449455 0 0 0
1713 1 -14.04874689028475 -12.912289818684924 3.318204018515763 1 1 0
332 1 -9.313535070091504 -12.47927575304489 2.929426463595915 0 0 0
143 1 -10.385960121882572 -11.835012217602882 0.4579074719858607 0 0 0
914 1 -10.691221983850692 -14.098878509325319 1.4182482596487205 0 1 0
334 1 -8.145685980641268 -12.729927189504302 0.862388738611978 0 0 0
919 1 -5.885455910064314 -13.711618299509986 1.3145175983550743 0 1 0
335 1 -7.031301262390178 -13.330661048928913 3.415658592833049 0 0 0
132 1 -5.67405200460828 -11.496140752144147 0.33269101016076696 0 0 0
339 1 -4.529262818857294 -12.111438042695104 2.9213156765008623 0 0 0
133 1 -3.4131877134790383 -12.352781757967874 0.7593371505133302 0 0 0
498 1 -1.2139402662922674 -13.305646805824653 1.046572174485421 0 1 0
329 1 -2.19369695415247 -13.122114430527988 3.339783900883555 0 0 0
1123 1 -13.814370095479541 -10.68889032544244 2.226859195956518 1 0 0
451 1 -11.292426479954544 -9.33611722974559 1.5029925460114164 0 0 0
373 1 -9.106305527497522 -10.233983037918492 2.0518958016517246 0 0 0
338 1 -6.907020246841059 -11.229070198323589 2.3171520267334724 0 0 0
138 1 -6.539628172111389 -8.912656899681517 1.4587635733083655 0 0 0
344 1 -4.346425321925743 -9.889053451700248 1.7655275419439374 0 0 0
345 1 -2.15618003486105 -10.789640634071137 2.23500015831865 0 0 0
136 1 -1.952658876711661 -8.615243951174415 1.2575894177194353 0 0 0
1223 1 -14.078149592097093 -13.15003012254564 7.907832303607579 1 0 0
937 1 -13.57067684456225 -8.473188778769098 1.1871773769342564 1 0 0
453 1 -12.301989479466599 -6.781142420268792 2.7507578599374423 0 0 0
189 1 -11.035893248359862 -7.182500853010136 0.6133424560552783 0 0 0
157 1 -8.827505104139469 -8.0860472325199 0.9961679460597583 0 0 0
452 1 -9.982401562035736 -7.706342202772469 3.2240885319613195 0 0 0
421 1 -7.564303700080304 -6.4859470995261095 2.4229315755584278 0 0 0
156 1 -6.346496992954339 -6.809354110719013 0.40050078012159496 0 0 0
374 1 -5.290945268547162 -7.421187857713636 2.984786781444056 0 0 0
137 1 -4.159922295436587 -7.7699523971172155 0.8404586920098769 0 0 0
152 1 -2.8662597328233392 -6.183732250787559 2.3505533603014523 0 0 0
385 1 -3.0725975099819784 -8.419383278317206 3.4209037125988164 0 0 0
395 1 -0.5742047929447764 -7.00076851233038 2.802846076548496 0 0 0
154 1 -1.6714261935663597 -6.355118724299812 0.19660850191835522 0 0 0
460 1 -12.031136860064894 -4.696789154041719 1.6724713119723429 0 0 0
454 1 -9.804254877143707 -5.472477134383917 2.0555566131574086 0 0 0
464 1 -9.511717658239375 -3.3583331540611976 1.1370183123103228 0 0 0
293 1 -10.77544170264187 -3.104682567308311 3.2590388073255223 0 0 0
235 1 -7.455887858936965 -4.248640847651377 1.4940231684621388 0 0 0
384 1 -5.158784939780924 -5.28194219567909 1.8136853873927699 0 0 0
255 1 -4.880950541656677 -3.00264013997643 0.8198060481855176 0 0 0
432 1 -3.8790900065717295 -3.7892442676328226 3.3471128504276795 0 0 0
443 1 -2.6224397403726503 -3.9322366975119394 1.214745447622068 0 0 0
394 1 -0.4643280716141085 -4.902197137488839 1.8239437099133529 0 0 0
461 1 -13.109752972030973 -2.2410391663546285 2.770828120612334 0 0 0
458 1 -11.799928543183428 -2.4487084790707208 0.6598460416503578 0 0 0
313 1 -1.2981443692325598 -0.8620398099984872 11.31802666659098 0 0 0
860 1 -10.58290226459936 -0.8451701928294888 2.0739594766501295 0 0 0
306 1 -3.6804433380496846 -2.131813375184331 11.881118835014055 0 0 0
236 1 -6.204581441611224 -2.7993932207676195 2.8761453179295966 0 0 0
301 1 -8.323902234021455 -1.7894879868245113 2.5377696021126557 0 0 0
729 1 -5.9224215186702285 -0.5864113071191479 1.8437034240975798 0 0 0
728 1 -7.174437651086822 -2.02619967107044 0.46775310053521046 0 0 0
733 1 -3.6691183723337844 -1.3772069516841565 2.381323133217654 0 0 0
726 1 -2.489001849437102 -1.769615573248446 0.23027225830452913 0 0 0
273 1 -1.3560646314125826 -2.3120403918727863 2.7719236069324626 0 0 0
1194 1 -0.2938981832797456 -2.802491814397877 0.6109443115800648 0 0 0
1871 1 -1.116534781388511 -0.24849495599347904 1.5816958256370164 0 0 0
909 1 -11.782452311677554 -13.699078189819296 3.6782541899281487 0 1 0
911 1 -12.923162979587222 -13.515758129968509 5.711014967673913 0 1 0
358 1 -10.405566142400506 -12.182263507990207 5.192273159449515 0 0 0
333 1 -8.254412276112543 -13.177530808135762 5.609319104114332 0 0 0
337 1 -5.939449551837406 -14.085470054898243 6.0915245382549 0 0 0
336 1 -5.76047881635543 -11.728814678919264 5.101662276969796 0 0 0
341 1 -3.4774117524069084 -12.854959685670329 5.341349194606694 0 0 0
349 1 -1.1644502236320395 -13.80828101308519 5.799740047090706 0 0 0
347 1 -1.0972583741411626 -11.369184527215356 4.830001804998412 0 0 0
1201 1 -12.619933067613445 -11.290602120400987 4.763341483940691 1 0 0
1200 1 -12.55000836561865 -8.935809563680507 3.6448935263192954 1 0 0
1222 1 -13.660804328173956 -8.773289326640988 5.880989711836721 1 0 0
357 1 -11.285818989815983 -9.630115489094855 6.218800369578796 0 0 0
1199 1 -13.842836667726306 -10.952382463046828 6.896878408302699 1 0 0
364 1 -10.18257697766542 -9.974926631202887 4.2079675444364195 0 0 0
359 1 -9.116276453956814 -10.624905166586318 6.676469673052276 0 0 0
365 1 -7.7418844730467375 -8.724260156969255 3.4829589378980703 0 0 0
366 1 -8.043356440233307 -10.89517855703762 4.543427039150137 0 0 0
367 1 -6.790375876554905 -9.462430792198944 6.030039805958909 0 0 0
375 1 -5.44006191979328 -9.652857116019495 3.9276156157421998 0 0 0
340 1 -3.26939723681612 -10.68888718603591 4.427031485046259 0 0 0
377 1 -4.431755384639111 -10.22074907987243 6.488676836440517 0 0 0
346 1 -0.8019810171600827 -9.228534306105548 3.7814051369214514 0 0 0
387 1 -1.9745299128285456 -9.049291151914673 5.912247500561373 0 0 0
1221 1 -13.392547248690677 -6.592259541084328 4.84906571816663 1 0 0
411 1 -11.240024177997835 -7.466033755553657 5.441641944783656 0 0 0
413 1 -8.967906840904845 -8.337597575010154 5.687291061938103 0 0 0
412 1 -8.717135310673594 -6.259083623086241 4.709574330689302 0 0 0
269 1 -9.841638151195575 -5.955859175298167 6.740153169158296 0 0 0
423 1 -6.50935688363338 -7.207854753718603 5.180529441246117 0 0 0
376 1 -4.276975319514289 -8.044065916370084 5.492713198728195 0 0 0
433 1 -3.962998751732764 -5.857421822273961 4.4949747456820734 0 0 0
386 1 -1.8728064809462897 -6.669505108446062 4.864415162095378 0 0 0
1254 1 -13.272218503460083 -4.443223579305046 3.8581671734768666 1 0 0
280 1 -12.275598677000206 -4.934228676888228 6.478488398438122 0 0 0
271 1 -10.954049788160576 -5.2791839018258635 4.321892559346521 0 0 0
270 1 -9.75063514670931 -3.63314926527417 5.73086498942134 0 0 0
253 1 -8.46042658809772 -3.9559330093033758 3.665673587008124 0 0 0
422 1 -6.250094542366122 -5.038105785255905 4.017067509417087 0 0 0
251 1 -7.319643397605474 -4.68483471527969 6.155702292381031 0 0 0
424 1 -5.222836139276485 -5.6367619914859315 6.5756702465307075 0 0 0
237 1 -5.071976147766362 -3.4243045071121525 5.528950812441272 0 0 0
434 1 -2.7728571881814634 -4.330687525112795 6.007535855819144 0 0 0
446 1 -0.49302261181656704 -5.296153158994256 6.3873503213312315 0 0 0
444 1 -1.688407590353675 -4.471131834449679 3.849799539765934 0 0 0
445 1 -0.2611847041434441 -3.0578210225913622 5.407466554187097 0 0 0
285 1 -12.13945740160171 -2.7923214086835397 5.422377823089429 0 0 0
459 1 -11.76872895786645 -0.5921145627082343 4.161152562416605 0 0 0
1290 1 -12.911152543606285 -0.35623336031441966 6.427830786708478 1 0 0
294 1 -9.472843047895081 -1.4001174505570653 4.696411713449409 0 0 0
727 1 -7.064858717717448 -0.2810422690481005 3.9544067682399504 0 0 0
252 1 -7.221866539927865 -2.4479814455233893 5.056058172516101 0 0 0
302 1 -5.99667877368695 -0.9029496168428235 6.6740865379668595 0 0 0
1396 1 -0.04720810154755206 -0.9222937318276578 4.258531574705399 0 0 0
310 1 -4.877619852448827 -1.1922406566643193 4.518596576192193 0 0 0
256 1 -2.6349325841015503 -1.9480829930006411 4.926354234224254 0 0 0
257 1 -1.3747741337403294 -0.4414186053095115 6.494128589103651 0 0 0
1161 1 -0.12410721473628428 -12.664654426108026 12.07039331205876 0 0 -1
354 1 -11.651662703519728 -11.932485064498081 7.268691699334985 0 0 0
399 1 -12.701678774588986 -11.705858245269468 9.435434144295483 0 0 0
935 1 -0.01692035341834064 -13.920676642825228 3.6268755812566784 0 1 0
361 1 -9.31733823228809 -12.8507459214748 7.736826101181533 0 0 0
408 1 -10.41777830698166 -12.613055057849824 9.871763298807336 0 0 0
370 1 -7.048406577765451 -13.716145156029379 8.196153506647184 0 0 0
368 1 -6.989826554930921 -11.56149132584677 7.076945667297581 0 0 0
371 1 -5.737182161990523 -12.20776730673797 9.705485603108032 0 0 0
379 1 -4.565708926987938 -12.532424364129884 7.54224696236656 0 0 0
382 1 -3.461476080870348 -13.114356862739095 10.116505499980535 0 0 0
343 1 -2.409026815116132 -13.579366711656329 7.942507842386464 0 0 0
391 1 -1.1617050455905833 -12.015907456284616 9.499049760774833 0 0 0
404 1 -12.653788116468052 -9.475690007619054 8.340716240295643 0 0 0
406 1 -10.412727647572536 -10.364863687772775 8.868242414854036 0 0 0
417 1 -8.091819623369231 -11.211480157575465 9.275488875937553 0 0 0
415 1 -7.895835841198807 -8.982765265921875 8.267008046099429 0 0 0
369 1 -5.610604900248417 -10.021883041246376 8.691582212923931 0 0 0
380 1 -3.4302923887888745 -10.91076082760363 9.008636555440168 0 0 0
378 1 -3.0905526546362836 -8.738791539470501 7.936388380698306 0 0 0
342 1 -2.2556784114502424 -11.224874832864712 7.008475800307577 0 0 0
389 1 -0.9296583096669817 -9.795939099110244 8.45241409162623 0 0 0
403 1 -12.45637001564229 -7.204975216888532 7.503056680846894 0 0 0
1252 1 -13.406459917993638 -7.028487960120616 9.672619727670986 1 0 0
278 1 -11.212440324950848 -7.867530517082512 10.022082531771469 0 0 0
405 1 -10.146349644395716 -8.127177226523418 7.874283673266968 0 0 0
267 1 -8.857656281374602 -6.721120331637591 9.452532483612268 0 0 0
414 1 -7.6004842541285775 -6.746993722387872 7.376396519868747 0 0 0
416 1 -6.482095559461655 -7.533120485922262 9.849627481885866 0 0 0
425 1 -5.434539310814184 -7.863351061606411 7.597555503960352 0 0 0
426 1 -4.166375218664019 -6.199293896898547 9.224864850430253 0 0 0
435 1 -2.927104374375146 -6.457172051108815 7.134150375658502 0 0 0
388 1 -0.7374100228484579 -7.454658811259458 7.420632433014161 0 0 0
437 1 -1.9504967683817895 -7.214131130020211 9.541319023941545 0 0 0
281 1 -12.035705375826188 -3.2811578689695295 10.003108205713913 0 0 0
1251 1 -13.36092085779093 -4.780557135283301 8.631863675371028 1 0 0
279 1 -11.009475646892918 -5.759940801399006 8.975773875263938 0 0 0
287 1 -10.893924860839755 -3.481600681412223 7.871803844745623 0 0 0
268 1 -8.642296969767699 -4.402751104627491 8.295255752403667 0 0 0
249 1 -6.375140547593678 -5.319731792443276 8.794432068507499 0 0 0
250 1 -6.253831119064934 -3.0741944467192504 7.715859191278602 0 0 0
297 1 -7.338092285566251 -2.863863874450674 9.865246295417824 0 0 0
239 1 -3.967462301023973 -3.9718532341580417 8.003337515023768 0 0 0
248 1 -5.016428685084916 -3.7314138590619876 10.391361823845658 0 0 0
436 1 -1.6731933340273528 -4.906945673413734 8.519413627102816 0 0 0
260 1 -0.22943623591821094 -3.4622919741087124 10.184195322916851 0 0 0
1291 1 -13.160187086247552 -2.5261916097436963 7.4912884109143665 1 0 0
318 1 -11.88470520477652 -1.0074444150108341 8.971188914779008 0 0 0
307 1 -2.469007382964371 -0.7193976829469406 13.469116244675996 0 0 0
286 1 -10.623289076249439 -1.287265709486988 6.896780985154072 0 0 0
288 1 -9.668580694520426 -1.9586852171920253 9.391503900034978 0 0 0
295 1 -8.396430664790717 -2.2480027620919962 7.22763454534096 0 0 0
296 1 -7.157535779288227 -0.6348248755557524 8.788099935853646 0 0 0
238 1 -3.7717862443470214 -1.769844723092815 7.104672062906852 0 0 0
304 1 -4.839139789669618 -1.5458309751994541 9.303953345246457 0 0 0
258 1 -1.4004208509668885 -2.7507174219500943 7.582908429232345 0 0 0
259 1 -0.02569326103421865 -1.1146273280928103 9.145366227200848 0 0 0
240 1 -2.590724750279554 -2.4616965967120734 9.707581397668827 0 0 0
311 1 -2.4240396659461805 -0.2284242466134252 8.743864843381077 0 0 0
401 1 -12.828104489567941 -13.86081362464159 10.505614230043653 0 0 0
96 1 -11.696200905359749 -12.351490565854249 12.007016935536084 0 0 -1
1218 1 -13.8956756337219 -11.387076917430894 11.57310247018083 1 0 0
170 1 -12.535768675333875 -10.808895703692876 0.13670143854174377 0 0 0
95 1 -9.372810884912727 -13.150436602328051 12.618816179274988 0 0 -1
419 1 -8.184725139069592 -13.453226267347311 10.236468955242598 0 0 0
92 1 -6.926073625542315 -11.938879476813856 11.80043063168471 0 0 -1
23 1 -7.093358401898839 -14.100303136646595 12.92243096021197 0 0 -1
90 1 -4.624007926116942 -12.89659808556422 12.264265700555674 0 0 -1
1360 1 -1.2914078068958634 -14.161370762472837 10.643115722377049 0 0 0
987 1 -2.4806464019937344 -13.85395410209832 12.626200623650073 0 0 -1
441 1 -2.360649555204853 -11.76532274935778 11.651649163661839 0 0 0
1216 1 -13.651678289438811 -9.170384160970478 10.57120615858255 1 0 0
55 1 -12.489782499659531 -9.97087086320973 13.123783414319051 0 0 -1
276 1 -11.4599033151196 -10.120144134630921 10.98700315656117 0 0 0
407 1 -9.085565303879964 -8.917842710914606 10.328281596339798 0 0 0
409 1 -9.275172802703622 -10.969752435474732 11.515713421830165 0 0 0
868 1 -14.074304103553407 -1.4497639883355848 0.27259843921373417 0 0 0
418 1 -6.781197171882778 -9.714462456778707 10.844268313197896 0 0 0
263 1 -7.8381167794073425 -9.532103465134464 12.94756735402648 0 0 0