LAMMPS data file via write_data, version 2 Aug 2023, timestep = 0, units = metal

1872 atoms
3 atom types

-14.422525819185962 14.422525819185962 xlo xhi
-14.485345905548765 14.485345905548765 ylo yhi
-13.153119559641956 13.153119559641956 zlo zhi

Masses

1 55.847
2 1.008
3 1.008

Atoms # atomic

938 1 -13.402963554643064 -12.170522152290394 -11.80678894243444 0 0 0
978 1 -13.307980611076424 -9.475827456082346 -11.539642502244881 0 0 0
986 1 -11.740749875791746 -10.976086437294136 -10.389435545390626 0 0 0
1075 1 -13.02285781491132 -9.885916588612787 -8.720560038971584 0 0 0
937 1 -12.997129023299252 -12.647860087251269 -9.038564485877348 0 0 0
942 1 -10.209167361969204 -12.558231880820644 -9.453778053686282 0 0 0
996 1 -10.518899765300736 -12.230063841051864 -12.199886970748196 0 0 0
987 1 -10.461997657730894 -9.339868264320138 -11.937152036104244 0 0 0
985 1 -10.181674687660085 -9.700503814647895 -8.993348054792367 0 0 0
1752 1 -11.990027075150543 -13.92040870418348 -10.907196765724901 0 1 0
1750 1 -11.463826122885589 -14.115044469926332 -8.028429038549998 0 1 0
997 1 -8.970555725286983 -10.836038006330096 -10.856361908246564 0 0 0
1749 1 14.41912236194584 -14.181286221784815 -7.6245713857109845 -1 1 0
943 1 -8.930877809421382 -13.886042423206671 -11.106290377395258 0 0 0
977 1 -11.314556353017284 -11.285607589494404 -7.359608603481185 0 0 0
994 1 -8.579689652088273 -11.206170283578109 -7.795969926724391 0 0 0
1760 1 -8.75424709857538 -14.151202088038408 -8.185489989321521 0 1 0
948 1 -7.8810447564670865 -12.13671090575658 -12.49716380679826 0 0 0
1006 1 -6.1553081842441255 -10.954121085636283 -10.976458103945362 0 0 0
1106 1 -7.646183705864149 -9.358527612519746 -12.204193450011607 0 0 0
947 1 -7.509400597631473 -12.488810670634585 -9.533597678403652 0 0 0
995 1 -7.416830701205191 -9.661805486105026 -9.374113544117451 0 0 0
952 1 -4.999512496836573 -12.243308030544771 -12.805646002762053 0 0 0
1007 1 -4.842320912896486 -9.343900501121077 -12.435232035691932 0 0 0
951 1 -4.7084128209290235 -12.573864711676565 -9.95294113624941 0 0 0
1005 1 -4.547616360714068 -9.638990033084802 -9.509501232379574 0 0 0
1004 1 -5.8678786603788335 -11.243482835437463 -8.13722172397661 0 0 0
1772 1 -6.275744003401732 -13.71104631408025 -11.320773028312157 0 1 0
1770 1 -5.847713910831798 -14.125021827033727 -8.525171308881209 0 1 0
1782 1 -3.36674681683815 -13.733947395341445 -11.77104060395972 0 1 0
1016 1 -3.4022462098384523 -10.959478544855177 -11.27376052990781 0 0 0
955 1 -1.8134323505835255 -12.569286240772367 -10.318745872666991 0 0 0
956 1 -0.5333412952136296 -13.864385873957888 -12.021391312313309 0 0 0
1017 1 -0.43503356431209816 -11.102137009408374 -11.650572314422918 0 0 0
1026 1 1.1806018799813796 -12.444240550163519 -10.485823535949793 0 0 0
1015 1 -0.2771239589408907 -11.249599878022522 -8.795121218103251 0 0 0
1014 1 -3.0898253873065897 -11.207523480268653 -8.413199301770472 0 0 0
1124 1 1.0259780673655037 -9.683299355159761 -10.231855904698978 0 0 0
1114 1 -1.7661001659050868 -9.72037667452529 -9.939218771029468 0 0 0
1849 1 -3.0465858656214557 -14.0836556359746 -8.871385175681025 0 1 0
1853 1 -0.2674308811883517 -14.070551568932471 -9.105412029030887 0 1 0
1116 1 -2.1272120767247706 -9.348356900249183 -12.775330418100822 0 0 0
1126 1 0.8894413613876218 -9.351187540161854 -12.990598735414007 0 0 0
1024 1 1.3661909980719802 -12.736538212710935 -7.469174417202493 0 0 0
148 1 -2.155534367816763 -12.190705680761887 -13.136124683294288 0 0 1
65 1 2.2469257958166526 -13.86521629928403 -12.197948298862112 0 0 1
1027 1 2.3934963558459383 -10.89211750598957 -11.89930447034781 0 0 0
958 1 2.5256633562046193 -14.148185680628364 -9.23569872366299 0 0 0
1025 1 2.594458205921269 -11.17864963662172 -8.913219344626327 0 0 0
961 1 5.369714475324605 -13.970191028690008 -9.564825590109994 0 0 0
1035 1 5.522289434203499 -11.130454890935722 -9.45728137073207 0 0 0
1036 1 3.8921082029816123 -12.447763352677462 -10.748887216514746 0 0 0
1046 1 6.867353138951083 -12.503865428119155 -11.021102052255653 0 0 0
1034 1 4.158712514678351 -12.676239540540289 -7.749615832047123 0 0 0
1044 1 7.1749862990051465 -12.71890067650612 -8.153920627901199 0 0 0
1037 1 5.292292819801316 -10.891275580920249 -12.054838371663674 0 0 0
962 1 5.116748201825773 -13.756066354377461 -12.411618408506612 0 0 0
1134 1 3.9342802641834123 -9.694415681951067 -10.416775378780276 0 0 0
1144 1 6.9190028675138695 -9.625684376812726 -10.668415559786578 0 0 0
1043 1 7.319613758674018 -9.884788871001053 -7.696721888847579 0 0 0
965 1 7.951579347859534 -13.695705552488725 -12.703740555755882 0 0 0
1047 1 8.104748231025576 -10.867860580544061 -12.367439680479409 0 0 0
1045 1 8.443772406278454 -11.205570702564945 -9.512294202944812 0 0 0
964 1 8.318914428313134 -14.064087781438513 -9.907490173602362 0 0 0
1055 1 9.85434239845039 -9.630615942102612 -10.819618465401994 0 0 0
1056 1 9.599955657289199 -12.395622835855661 -11.278894595361653 0 0 0
1066 1 10.825173406636493 -10.924908267387757 -12.786136022797335 0 0 0
1054 1 10.008730558582476 -12.785484932078054 -8.377718284752206 0 0 0
967 1 11.217747704677071 -13.944205898784308 -9.994229419916412 0 0 0
1064 1 11.205608709251385 -11.21983590979718 -9.755899527231017 0 0 0
1053 1 10.092015062681424 -9.848129864079734 -7.945514431414992 0 0 0
1065 1 12.662239862941744 -9.588567655733831 -11.167858360745571 0 0 0
1871 1 12.895505183334935 -12.619203917952513 -8.65129675710785 0 1 0
1837 1 12.376962148652451 -12.358569594204038 -11.593308626805573 0 1 0
1063 1 12.964759870167692 -9.943190355129701 -8.319582682748829 0 0 0
968 1 10.935643185014092 -13.580034725342655 -13.034139448904003 0 0 0
969 1 14.175931574130297 -11.047696527496907 -10.107072855207392 0 0 0
1753 1 14.066029538237776 -13.74539244003615 -10.533981805926619 -1 1 0
468 1 13.740424897331666 -10.79093651390164 -12.90103595534706 -1 0 1
1084 1 -11.746118659385688 -8.14824872592106 -10.113968183298175 0 0 0
1076 1 -13.318526857654692 -6.65614478703268 -11.201815271381408 0 0 0
1173 1 -13.104665755431252 -3.818994937693871 -10.789203081881183 0 0 0
1183 1 -11.937103427497233 -5.000887751305369 -12.477459620843607 0 0 0
1181 1 -11.564456384154127 -5.385818612454928 -9.791569619045367 0 0 0
1085 1 -10.36767815928808 -6.529145275235323 -11.582106818527215 0 0 0
1182 1 -10.241090376345099 -3.7857798040561086 -11.040236952530623 0 0 0
1083 1 -10.072983697043119 -6.816790262839617 -8.561175635983801 0 0 0
1074 1 -12.817783715174809 -6.871327888919156 -8.272630722082372 0 0 0
1180 1 -9.93715535713815 -3.991962382808424 -8.279218780344557 0 0 0
1171 1 -12.878276197672164 -4.074243818565472 -8.14609426031172 0 0 0
1193 1 -9.05543872155676 -4.924576671330563 -13.008936813457474 0 0 0
1086 1 -12.089273542390327 -7.913180409604659 -12.959920431571822 0 0 0
1094 1 -9.024497329248463 -8.030677584841811 -10.349402125487572 0 0 0
1191 1 -8.752103956977674 -5.140350012704481 -10.068348192629141 0 0 0
1164 1 14.246111231724695 -8.3168796172847 -9.774769268387038 0 0 0
1104 1 -6.059586897694112 -8.160853410713738 -10.693151805112077 0 0 0
1095 1 -7.626297514178745 -6.541807726027128 -11.884100725853795 0 0 0
1192 1 -7.469340118249682 -3.6620074348975216 -11.565771512656848 0 0 0
1201 1 -5.967927456162673 -5.174171550272023 -10.39525783370124 0 0 0
1203 1 -4.750668854236208 -6.501504109542118 -12.102485814936754 0 0 0
1190 1 -7.309424798479657 -3.8251197157722476 -8.664643837545045 0 0 0
1093 1 -7.23619108481045 -6.691343217766975 -9.073461915128426 0 0 0
1103 1 -4.513635566511184 -6.755910911563304 -9.278794079768423 0 0 0
1298 1 -4.459602239722665 -3.9104369972609145 -8.914729518706434 0 0 0
1102 1 -5.81697546841087 -8.313960663110459 -7.889176255923003 0 0 0
1300 1 -4.890919005610954 -3.592311750877883 -11.790679227268537 0 0 0
1202 1 -3.313344528505402 -5.215499529624855 -10.64759726431802 0 0 0
1105 1 -3.2534612910599776 -8.13696272342353 -10.938686168597144 0 0 0
1092 1 -8.656677510611553 -8.346493507032434 -7.544601466971761 0 0 0
1199 1 -5.735644882567843 -5.444630690947882 -7.469259005460011 0 0 0
1112 1 -2.9912206011439118 -8.396553733302088 -8.109322059957563 0 0 0
1115 1 -0.5586052496380169 -8.126631655815343 -11.300866386935294 0 0 0
1211 1 -1.6694502615725746 -6.811923578842388 -9.57662457606533 0 0 0
1212 1 -0.3758890698291548 -5.312642354665995 -10.962727324125998 0 0 0
1221 1 1.21439229626289 -6.747990055846287 -9.912430117459277 0 0 0
1113 1 -0.11008958233559873 -8.366345880462646 -8.469567086600726 0 0 0
1210 1 -0.029734200815006773 -5.612778703103409 -8.049584831833796 0 0 0
1213 1 -2.044814820026609 -6.468938923893242 -12.311282620220275 0 0 0
1222 1 1.060277199841746 -3.850965557096595 -12.07970688401701 0 0 0
1308 1 -1.6668184386572893 -4.040721006943436 -9.117439297539248 0 0 0
1223 1 0.8241306357200724 -6.579255363972894 -12.814878343478762 0 0 0
1220 1 1.292957834597706 -3.944344493329675 -9.29504809764045 0 0 0
1310 1 -1.9022118112228092 -3.6768322632086825 -11.907949924176366 0 0 0
1200 1 -2.9626219037720496 -5.47941007995299 -7.848618985551645 0 0 0
1125 1 2.3954441224246583 -7.999889151127755 -11.505868044664808 0 0 0
1231 1 2.591493433337904 -5.308486369235727 -11.060339132568528 0 0 0
1142 1 5.496878023654416 -8.42432567377889 -8.975306906815991 0 0 0
1123 1 2.6582842125528945 -8.475301450975893 -8.758455898753093 0 0 0
1133 1 4.116998079055433 -6.828641837200817 -10.078055472502982 0 0 0
1135 1 5.278445636152076 -8.119029491325257 -11.725065909913933 0 0 0
1232 1 4.067395137497462 -3.8106416915407166 -12.355033290378497 0 0 0
1241 1 5.470814702471058 -5.325982100884833 -11.355890123606626 0 0 0
1230 1 4.122415805934379 -3.8542305034298856 -9.625272924671284 0 0 0
1239 1 5.629666756142884 -5.575860496620349 -8.5945623172588 0 0 0
1229 1 2.8286771202640555 -5.593692775735487 -8.376374130540857 0 0 0
1143 1 6.997769896091649 -7.017594463688534 -10.117321397420227 0 0 0
1240 1 6.984318699589965 -3.9999676471043415 -9.909415119985445 0 0 0
1233 1 3.7632094383219528 -6.629550735538294 -12.788212708373582 0 0 0
1242 1 6.804033180724234 -3.7506871217165454 -12.614246299493145 0 0 0
1145 1 6.86251370783029 -6.557481112677263 -12.971944722195154 0 0 0
1152 1 8.590004454529128 -8.463400999268423 -9.158087903943148 0 0 0
1162 1 11.430271383523541 -8.354346585307631 -9.40883007001205 0 0 0
1154 1 8.275424650487343 -8.142296973782239 -12.029469966023132 0 0 0
1155 1 11.1544716247025 -8.022058276202264 -12.275544036459388 0 0 0
1251 1 8.391861990398523 -5.335826044378148 -11.51334084560781 0 0 0
1153 1 9.864017722850738 -6.847304439907385 -10.537730426106549 0 0 0
1250 1 9.816792601246535 -4.049724357229218 -10.053869379293007 0 0 0
1252 1 11.208923721095408 -5.209969234206287 -11.775076945695774 0 0 0
1249 1 8.674956944285222 -5.575391102867057 -8.69223770109372 0 0 0
1258 1 11.459883794584753 -5.549269256752947 -9.12077301406934 0 0 0
1259 1 12.90385209726506 -3.883000442821329 -10.37940395726757 0 0 0
1260 1 12.752407063936166 -6.754466608350247 -10.743965572183953 0 0 0
1161 1 13.01463692103796 -6.84870563979734 -7.9668643878276955 0 0 0
1257 1 13.042927046677919 -3.988065195831892 -7.892629207973525 0 0 0
1151 1 10.144331069478904 -7.051255775221514 -7.791829055568374 0 0 0
45 1 9.70109929178013 -3.729047675929806 -12.949700935697189 0 0 1
1172 1 14.31086567046979 -5.360014437228138 -9.337205648812226 -1 0 0
1067 1 14.064427176846673 -7.885739910211807 -12.700566567409735 0 0 0
1163 1 14.155044453376528 -5.11936873446089 -12.243939921028668 0 0 0
1278 1 -11.485384641454562 -2.3879629346403597 -9.422412108605156 0 0 0
1280 1 -11.764364614993887 -2.2895492229142675 -12.216027631306979 0 0 0
1269 1 -13.092299811476012 -0.972521713937363 -10.445146634825441 0 0 0
1366 1 -13.05223790468362 1.9944658900244647 -10.380465569830019 0 0 0
1377 1 -11.746031949275887 0.6234436980244524 -12.078976574157371 0 0 0
1375 1 -11.615709631055335 0.41047551241379665 -9.220198799943516 0 0 0
1279 1 -10.230576409642023 -0.8647150265097903 -10.933634465647028 0 0 0
1277 1 -9.988356206709543 -0.964273149221377 -8.075614422109481 0 0 0
1473 1 -10.09200108258731 1.9086610847528824 -7.88951015730352 0 0 0
1475 1 -10.375927188577219 2.1786919366561506 -10.828878772447212 0 0 0
1267 1 -12.91797909051864 -1.074007746126691 -7.8122676617813465 0 0 0
1290 1 -9.126834106178858 -2.2758169294989408 -12.602991291826767 0 0 0
1378 1 -8.992443332311247 1.0126624360051295 -12.374987966908773 0 0 0
1368 1 -13.214020222071005 2.1148517308322425 -13.015179918199593 0 0 0
1365 1 -14.403038947490748 0.41584119200888203 -8.920560648102802 0 0 0
1376 1 -8.870141714994002 0.6174801071994427 -9.55310702846465 0 0 0
1288 1 -8.65955211380707 -2.3959088818807253 -9.779546334941381 0 0 0
1387 1 -7.5797980842013795 -0.7662924661373403 -11.206435824550963 0 0 0
1289 1 -5.964681674001859 -2.275745694653809 -9.974879059603005 0 0 0
1386 1 -5.929345661324726 0.5619103021865488 -9.858412390097547 0 0 0
1395 1 -4.396058854276102 -1.023883552872178 -8.626630539843887 0 0 0
1398 1 -4.834470914480255 -0.7782603483752446 -11.64596848978237 0 0 0
1385 1 -7.143080720137432 -0.8903475810584673 -8.334170873119962 0 0 0
1483 1 -7.174134306497168 1.806695747076276 -8.30432470475753 0 0 0
1388 1 -6.203427854480582 0.9508938901582908 -12.787516138260319 0 0 0
1493 1 -4.391762091295886 1.8336516834537342 -8.49344518439585 0 0 0
1485 1 -7.437359495697876 2.1712711527307356 -11.00009159905593 0 0 0
1397 1 -6.366464824574372 -2.0415033796472013 -12.963349392491894 0 0 0
1495 1 -4.4187936255272735 2.0923772773917158 -11.285460750438293 0 0 0
235 1 -3.4361262390764615 -2.213438147594763 13.107804595509075 0 0 0
1299 1 -3.2259028018987284 -2.4038113488259576 -10.33987516543689 0 0 0
1408 1 -3.1392335440744894 0.39322817239700036 -12.631994075421671 0 0 0
1396 1 -3.0066514837835907 0.5650233023257982 -10.031604377339427 0 0 0
1318 1 -0.23442879900332336 -2.436277890966215 -10.430722657054133 0 0 0
1309 1 -1.6869156458834613 -1.0169626369589313 -11.476690763488635 0 0 0
1406 1 -1.5726503001649412 -1.0609297530683683 -8.88738313310027 0 0 0
1407 1 -0.14500611326519142 0.5980182894509323 -10.441136052786145 0 0 0
1416 1 1.245641572810463 -0.9998442867692248 -9.226268791806035 0 0 0
1307 1 -0.01924442769626289 -2.655370307154193 -7.666913052358356 0 0 0
1319 1 1.1546772564364378 -0.9997708124225877 -11.847447818863095 0 0 0
1503 1 -1.5007658827718302 1.85526002145588 -8.741322622953188 0 0 0
1513 1 1.4779212859394502 1.7824834757847512 -9.033333748716409 0 0 0
1515 1 1.241241182813802 2.050502750914614 -11.889724335179123 0 0 0
1505 1 -1.8129186425419999 2.0921028896498193 -11.526812883525908 0 0 0
1418 1 -0.3868565626971048 0.4207218804578652 -12.88843991902237 0 0 0
1297 1 -2.828949829410508 -2.6458449682037184 -7.45063711833724 0 0 0
1405 1 0.07535547528121533 0.37261504474594354 -7.560927104229245 0 0 0
1417 1 2.7261120544807955 0.4803249468241848 -10.641984514897553 0 0 0
1317 1 2.840500300569561 -2.6669657730565444 -8.0654232149679 0 0 0
1338 1 5.584104100080308 -2.3725412075963828 -10.89358652057689 0 0 0
1328 1 2.7066777356015645 -2.5054141851592604 -10.811020351841673 0 0 0
1329 1 4.045377633049673 -0.9706019423710934 -12.17250861504273 0 0 0
1426 1 4.215874571410387 -0.9871728106688629 -9.355271845179942 0 0 0
1436 1 7.287784229960115 -1.099735416871642 -9.509239315716831 0 0 0
1427 1 5.498739179657962 0.4240587630453625 -10.779027225933062 0 0 0
1327 1 5.74573737633032 -2.680846291045995 -8.273911739480237 0 0 0
1425 1 5.772549770989039 0.201215903458138 -7.954920084367707 0 0 0
1339 1 6.989424637142809 -0.877671181577238 -12.149250916940815 0 0 0
1415 1 2.9343131557704485 0.18567796009811666 -7.699831591995736 0 0 0
1523 1 4.179632028104349 1.790556890353578 -9.108007863370277 0 0 0
1533 1 7.057571847766463 1.8558037983070967 -9.459112330450392 0 0 0
1525 1 4.029750937476544 2.024483684750283 -11.996944023482706 0 0 0
1437 1 6.917430032645404 1.8971479916154337 -11.987187019886841 0 0 0
1355 1 11.444524085987167 -2.4330861112299047 -8.717146860502138 0 0 0
1337 1 8.643410240403385 -2.665324900272381 -8.393586091322586 0 0 0
1348 1 8.508898257204452 -2.5474797454360125 -11.334746095050805 0 0 0
1357 1 11.294865046978922 -2.489717839727776 -11.38650448079173 0 0 0
1435 1 8.71116188085867 0.36279337286287294 -8.149854409811951 0 0 0
1347 1 9.859204208723662 -1.0158487191687477 -9.831839242878024 0 0 0
1446 1 8.488170812544455 0.4632958946025134 -10.904303745466585 0 0 0
1454 1 11.30772151533211 0.5109358496744214 -11.215650983358618 0 0 0
1445 1 11.46674704640993 0.3622534161896205 -8.404126637385462 0 0 0
1356 1 12.809240099022153 -0.97058527326665 -10.19240800105235 0 0 0
1453 1 12.8316599405537 1.903242975771196 -9.810611425735713 0 0 0
1543 1 9.960933087439562 1.853633760996729 -9.522211326420345 0 0 0
1349 1 9.809163185472647 -0.9242603692757747 -12.67990180869026 0 0 0
1447 1 9.933822812223545 1.9641787104216242 -12.204189913447323 0 0 0
1455 1 12.876185259609974 2.1137437400623504 -12.614821037290833 0 0 0
1358 1 12.751570901521271 -0.867773976191117 -12.799253804902898 0 0 0
1268 1 14.362255374702775 -2.39955086011269 -9.043910834433365 -1 0 0
1367 1 14.308112451409693 0.5876831035901464 -11.543529610443242 -1 0 0
1270 1 14.222778764577585 -2.2968514413890695 -11.876061694589396 -1 0 0
1464 1 -11.554525814950486 3.3556665087699997 -9.05601357100825 0 0 0
1571 1 -10.265398028237502 4.938219570450183 -10.52406759076951 0 0 0
1560 1 -11.5096799171194 6.21727062260733 -8.889071198501778 0 0 0
571 1 -12.030121419359194 3.743286836901646 -11.950177138177443 0 0 1
1561 1 -13.166309592092043 5.116052565218979 -10.134754380818187 0 0 0
1562 1 -11.864291199078975 6.613851318810873 -11.696296826420273 0 0 0
1466 1 -13.391481160991354 5.358127132411159 -13.02377695859898 0 0 0
1572 1 -9.044985284151538 6.511141153134673 -11.972956991005015 0 0 0
1476 1 -8.9866583064363 3.6367066231149856 -12.201627441888618 0 0 0
1666 1 -10.284676026566554 7.866880997849069 -10.365091374840729 0 0 0
1656 1 -13.202375262213545 7.7925907411271 -9.917940576909132 0 0 0
1645 1 14.38765422891005 6.296625168442844 -8.413458903995737 0 0 0
1550 1 -14.360784562605737 3.394771237526033 -8.674207086257749 1 0 0
1569 1 -10.089441263791244 4.74807526221192 -7.715656492600258 0 0 0
1474 1 -8.724412410214477 3.433541475366024 -9.314852104548212 0 0 0
1570 1 -8.729864706196821 6.339784062004028 -9.268486422819961 0 0 0
1581 1 -7.35307826757634 5.093365286041994 -10.828969245072173 0 0 0
1484 1 -5.892737262358356 3.4711287072742856 -9.632352237811457 0 0 0
1591 1 -4.625119455207608 4.97473253576403 -11.059560029451701 0 0 0
1580 1 -5.842370725535256 6.453473297552854 -9.40560244522476 0 0 0
1589 1 -4.276441542899567 4.769293306195195 -8.309375359636256 0 0 0
1579 1 -7.138072305843302 4.833942690937285 -8.050138934665847 0 0 0
1582 1 -6.263524698736866 6.796750896160745 -12.22051394096594 0 0 0
1486 1 -6.093015485140887 3.6668154874047616 -12.428029895064137 0 0 0
1684 1 -4.353227284296569 7.516675056850438 -7.956668192805304 0 0 0
1496 1 -3.36086536026877 3.8423197281593886 -12.785626711396361 0 0 0
206 1 -3.4520421742417593 6.555493357400259 -12.623630754381221 0 0 1
1676 1 -7.5043539844316465 8.025610846656601 -10.489989580835461 0 0 0
1674 1 -7.227552338866139 7.635577127213072 -7.596269411656519 0 0 0
1494 1 -3.0433562392971734 3.458984744816213 -9.998322647365447 0 0 0
1590 1 -3.113092311039198 6.2819846798838235 -9.670786602469882 0 0 0
1601 1 -1.7869765282723478 4.940917082779002 -11.421027252935081 0 0 0
1504 1 -0.13960693070521835 3.4113212996790203 -10.234404122057295 0 0 0
1599 1 -1.338688631065338 4.730394406852472 -8.664554704345532 0 0 0
1609 1 1.3906294316445766 4.779419533321054 -8.826420677614905 0 0 0
1611 1 1.0708906220006735 5.129363648335623 -11.55789315525011 0 0 0
1600 1 -0.3008191768975603 6.416456825053615 -10.089357273463278 0 0 0
1602 1 -0.6539798875269085 6.610200498107865 -12.826614339102843 0 0 0
1506 1 -0.46719513186614137 3.6161212177570334 -12.938722371220571 0 0 0
1694 1 -1.5068166123680022 7.645764980536711 -8.276728073550288 0 0 0
1704 1 1.3313599268400047 7.693285344665455 -8.4751176628976 0 0 0
1706 1 0.9550810901013254 7.979765417005385 -11.363385621111028 0 0 0
1612 1 2.3116294311586483 6.663330498667463 -13.050537750317964 0 0 0
102 1 2.2132530760053033 3.803369689506404 13.081272793797178 0 0 0
1514 1 2.739829854646297 3.390472789950774 -10.484429793052888 0 0 0
1610 1 2.5627764921072593 6.4535977850825965 -10.199346301532152 0 0 0
1524 1 5.487181600466377 3.3992004841901142 -10.605161082174162 0 0 0
1619 1 4.1839496712653474 4.790152361821736 -8.926384439933209 0 0 0
1620 1 5.397303985257286 6.329038944396849 -10.47200328190092 0 0 0
1621 1 4.003556169801604 5.048903886840947 -11.808821918746277 0 0 0
1629 1 7.109645411340212 4.725970837507326 -9.276105342754013 0 0 0
1631 1 6.880973485902638 4.918358597966442 -12.02684571727493 0 0 0
1522 1 5.678876336989967 3.129867401718247 -7.742784548208269 0 0 0
1714 1 4.181870998461852 7.645700720023616 -8.76924319130157 0 0 0
1724 1 7.180776922790068 7.7673407736949756 -8.97502703683799 0 0 0
1618 1 5.855206067510553 6.140725992438323 -7.6679184054131895 0 0 0
1630 1 8.369256291731132 6.314584245359665 -10.657814397517015 0 0 0
1534 1 8.458681495967982 3.3440488410485436 -10.73925946435511 0 0 0
1532 1 8.671249013264356 3.2580993339926145 -8.013519989773538 0 0 0
1551 1 11.391485062664314 3.3334427074935746 -10.972822302830325 0 0 0
1544 1 9.900265707640232 4.801932344976478 -12.032926588773213 0 0 0
1639 1 9.979270695523967 4.7680981135201606 -9.478822695335946 0 0 0
1646 1 12.883699358378836 4.929784868645299 -9.77550404377452 0 0 0
1542 1 11.62628147680496 3.383066142598942 -8.242001969422926 0 0 0
1638 1 11.53215347066646 6.0562450992224335 -8.101166680763267 0 0 0
1640 1 11.403977852287175 6.3735271832101255 -10.849072613478992 0 0 0
1552 1 12.663684714056542 4.9046919536112625 -12.513597233652058 0 0 0
1734 1 9.96246598317652 7.690442626641708 -9.296831257701964 0 0 0
1741 1 12.824633751068559 7.870394929439822 -9.571427369576746 0 0 0
1628 1 8.636198759514405 6.106475129805755 -7.859252434890699 0 0 0
1647 1 14.06108052032033 6.557311034816426 -11.303096322938282 0 0 0
1465 1 14.223697731370569 3.6356736065832287 -11.331552435094286 -1 0 0
28 1 -13.474715733883643 8.117373906298393 -12.823374196428476 1 0 1
1655 1 -11.612477742161293 9.240887961213641 -8.591222114947055 0 0 0
531 1 -11.937115272611742 9.36911315604668 -11.39636817536385 0 0 1
1667 1 -10.329283298260933 10.764263636683989 -9.98935171341818 0 0 0
1742 1 -13.26359878531707 10.656218525412864 -9.699810930170479 1 0 0
1657 1 -11.978673138970649 12.242751591773917 -11.111720146354688 0 0 0
1743 1 -13.58298896698916 10.926764420204965 -12.620213420136366 1 0 0
1759 1 -11.650957090044244 12.040689685763482 -8.321928936986648 0 0 0
519 1 -10.735931872473376 11.093461240040234 -12.849570619821026 0 0 1
529 1 -9.121133104095211 9.387150458193325 -11.737123589851976 0 0 1
1762 1 -9.099877940958805 12.359492456484919 -11.469760757532168 0 0 0
1686 1 -4.686008545128086 7.924853821476503 -10.853482588357817 0 0 0
1769 1 -8.78318446384796 12.04599393640558 -8.589495027518769 0 0 0
1665 1 -8.789254016100772 9.184851456795172 -8.890643592170049 0 0 0
1675 1 -5.791981601186315 9.296058902744647 -9.236988238708776 0 0 0
1677 1 -7.4824526679581425 10.675422354842912 -10.357486425748839 0 0 0
1781 1 -4.676376026410029 10.710006257762501 -10.676913104810886 0 0 0
348 1 -6.2564053621491915 9.504543611539745 -11.943479413127886 0 0 1
1779 1 -5.902801423038561 11.970298140326076 -8.924322523596452 0 0 0
517 1 -6.235606438739628 12.472256945739232 -11.649214875806337 0 0 1
1683 1 -4.345229363341913 10.48812823398799 -7.706704413867417 0 0 0
338 1 -3.367797471724435 12.347829568740611 -12.063527561925241 0 0 1
1687 1 -3.3785798690010935 9.594949588830254 -12.448585004826702 0 0 0
518 1 -7.88140066931654 10.998004613613528 13.088863038533466 0 0 0
1696 1 -1.9458272119537803 7.9457825172434795 -11.324929029696381 0 0 0
1685 1 -3.175362940139914 9.19987725120508 -9.472159273605296 0 0 0
1789 1 -3.2200245521721342 12.095602231958022 -9.092076294362961 0 0 0
1695 1 -0.3555180273991905 9.344860492733506 -9.818712478660414 0 0 0
1791 1 -1.9347987398689614 10.885038592646929 -10.919274241515392 0 0 0
1799 1 -0.30000833186138287 12.141993805766198 -9.363873390343974 0 0 0
1801 1 1.013182701603169 10.88347224528081 -11.155566762056413 0 0 0
1697 1 -0.6822938326012178 9.635542304920783 -12.513165539977063 0 0 0
1792 1 -0.42559389937834524 12.393013478031694 -12.335115282555483 0 0 0
1703 1 1.2965194618394182 10.620789690968202 -8.216300959257257 0 0 0
1693 1 -1.5268239842033537 10.427371390459879 -8.083991128668806 0 0 0
1798 1 1.2685211750415437 13.32225584617963 -7.885940473559568 0 0 0
1811 1 2.397142776597102 12.428512641213224 -12.684807160106613 0 0 0
1707 1 2.397959367034142 9.525631571594332 -12.844411844075745 0 0 0
1788 1 -1.546405368331687 13.294869008409211 -7.704729077915076 0 0 0
1726 1 6.836166807813795 7.76236753978753 -11.821198414369404 0 0 0
1716 1 3.9356364412571363 8.026385042614077 -11.636758552924592 0 0 0
1800 1 2.643121759699044 12.091133881596289 -9.798355225535378 0 0 0
1705 1 2.715469204856836 9.148756759443454 -9.932183556421583 0 0 0
1715 1 5.535657005568185 9.18321768963655 -10.109627556249968 0 0 0
1717 1 3.8784624877136107 10.836368805238333 -11.400836284580285 0 0 0
1809 1 4.116904615968588 10.470810548056459 -8.419124150998613 0 0 0
1819 1 7.15665240966287 10.604014328115174 -8.76112386400156 0 0 0
1727 1 6.723429628150905 10.788928563231678 -11.471672005533465 0 0 0
1810 1 5.334406450436111 11.997121451112104 -9.883246778589788 0 0 0
1821 1 5.196791542355408 12.465799367887328 -12.674419123949077 0 0 0
202 1 5.312027523885911 9.605224222880707 -12.88270093824312 0 0 1
1861 1 7.178187314406143 13.35624226846004 -8.490649732811814 0 0 0
1857 1 4.225276009783444 13.405607319986807 -8.158542057066946 0 0 0
100 1 9.603895694899956 7.91251974813779 -12.092539833501327 0 0 1
26 1 12.442208352664066 8.206608078142349 -12.536532474662959 0 0 1
1725 1 8.307828283661282 9.230517258197942 -10.504817581200214 0 0 0
1820 1 8.312095801136186 12.16339982262187 -10.172620763021238 0 0 0
1822 1 9.733799582417697 11.007696526705026 -11.952624794416675 0 0 0
1735 1 12.898793736453166 10.5956598581527 -9.344995429333622 0 0 0
1736 1 11.258485175829515 9.333845630122447 -10.798290958820827 0 0 0
1829 1 10.032049443259298 10.548591660154585 -9.111020376237867 0 0 0
1832 1 12.47155676864943 10.924282651147301 -12.255985458152217 0 0 0
1831 1 11.34541714801591 12.170133401011505 -10.436986458692534 0 0 0
1733 1 11.443951457561903 8.865337143649242 -7.835662098685012 0 0 0
1723 1 8.674405823234446 9.011433801505426 -7.58847686964419 0 0 0
1828 1 11.603934688381587 11.837300137792749 -7.743567964873738 0 0 0
1836 1 14.376994762722477 11.920008658174549 -7.98160511661849 0 0 0
1740 1 -14.380418057492276 9.165759464358189 -8.244954081652324 1 0 0
83 1 13.973606884344301 9.36707088656619 -11.166823053269598 0 0 1
1838 1 14.033077621031401 12.144506984672969 -10.815911821766706 0 0 0
1751 1 -13.233429482925098 13.567256919374735 -9.186076202911725 0 0 0
1761 1 -10.332278984799819 13.664881517231532 -9.724033930817024 0 0 0
1658 1 -13.50973855659891 13.790195185786224 -12.225698103133947 0 0 0
1763 1 -10.611171457621417 13.864628930386989 -12.576707789738126 0 0 0
1771 1 -7.625728241927288 13.625358871945117 -10.035097335263014 0 0 0
1780 1 -4.6588465101767405 13.671370746760644 -10.243293489271709 0 0 0
944 1 -7.927538460764557 13.946035415306199 -12.93231959910665 0 -1 0
1790 1 -1.7751222981591752 13.487271087676262 -10.64483499548896 0 0 0
959 1 1.011148349647863 13.569340802179461 -10.928850910480575 0 -1 0
1862 1 6.671990788423065 13.673019513009397 -11.236050601503251 0 0 0
1802 1 3.8780879829442245 13.715195812721227 -11.000101291250534 0 0 0
1830 1 12.884930629403938 13.474742867547892 -9.079807471551145 0 0 0
1866 1 9.90805787557987 13.329243734181993 -8.811425713824768 0 0 0
1867 1 9.683042144435726 13.798204425189631 -11.543809555984812 0 0 0
490 1 12.509794783008692 13.90657341268643 -11.848676768268312 -1 -1 1
936 1 -12.79476162060098 -12.898975558856174 -6.333345117749719 0 0 0
975 1 -12.76552166745431 -9.990302177745617 -5.83446153955758 0 0 0
982 1 -11.20597186486465 -11.658864331351696 -4.861271456897242 0 0 0
1071 1 -12.403341177221868 -10.308391624885264 -3.1416011298213267 0 0 0
1841 1 -12.574983331033689 -13.162086351009231 -3.4640269367060714 0 1 0
984 1 -9.88877472633503 -12.816935016968849 -6.567202141893776 0 0 0
983 1 -9.914801321841455 -9.82605370318869 -6.121891865508777 0 0 0
990 1 -9.65481626160566 -12.984606610493376 -3.6898085689493314 0 0 0
981 1 -9.672628373655183 -10.344558747478573 -3.339946828811188 0 0 0
940 1 -14.220685641243591 -11.647508134744536 -4.3977006313820866 0 0 0
1842 1 -11.217572308826162 -14.322486357791808 -5.149623874732596 0 1 0
973 1 -10.946295508256203 -11.89906378545594 -2.038158906910841 0 0 0
992 1 -8.323265509145376 -11.550325366630817 -5.15800657395019 0 0 0
989 1 -8.190915918509294 -11.724343599397322 -2.2281918428353453 0 0 0
950 1 -4.220161865554793 -12.773066264745562 -7.0481767152917545 0 0 0
993 1 -6.994063129319098 -9.827664608671444 -6.399677667398612 0 0 0
1002 1 -5.514926148659923 -11.529234016486223 -5.289773887892917 0 0 0
991 1 -6.921015437193891 -10.192988228840479 -3.7262459093934055 0 0 0
946 1 -7.146951044901277 -12.815127098002009 -6.921347268495535 0 0 0
945 1 -6.807061893801696 -13.019274870940388 -3.956610647001453 0 0 0
949 1 -4.161192125684247 -13.057671188529435 -4.328875732071946 0 0 0
1003 1 -4.385105925737301 -9.933451092890971 -6.660565819034086 0 0 0
1001 1 -4.057608439125321 -10.038178079052187 -3.867364743903183 0 0 0
1000 1 -5.2477864650664365 -11.646709765406538 -2.5755659192279587 0 0 0
1846 1 -5.655925197230758 -14.314138486251277 -5.7637805900623835 0 1 0