LAMMPS data file via write_data, version 2 Aug 2023, timestep = 0, units = metal

1862 atoms
3 atom types

-13.647822925426487 13.647822925426487 xlo xhi
-14.55318868426312 14.55318868426312 ylo yhi
-13.766705568765039 13.766705568765039 zlo zhi

Masses

1 55.847
2 1.008
3 1.008

Atoms # atomic

1071 1 -11.047451379287052 -11.459284599652568 -11.29139669721913 0 0 0
1072 1 -12.69030676520227 -10.849366046971543 -13.141904285893528 0 0 0
1082 1 -12.512065826867783 -13.235607102232452 -11.458096775769073 0 0 0
1180 1 -9.754989829825712 -13.598303409610725 -11.947062035975385 0 0 0
1069 1 -10.564522990933366 -9.891870614252074 -8.800296869150985 0 0 0
1081 1 -10.890059009153164 -13.978612218922336 -9.826189305987997 0 0 0
1178 1 -9.26927937245427 -11.779727172083229 -9.511016086721721 0 0 0
1167 1 -9.397420323044255 -9.473494530762752 -10.992534510502498 0 0 0
1080 1 -11.956498195483219 -11.788904945576334 -9.008617600914569 0 0 0
1070 1 -12.15718971007249 -9.350852370605502 -10.699015131312168 0 0 0
1169 1 -9.906924213989587 -10.962215297520897 -13.49026825142153 0 0 0
983 1 -13.115068653040897 -9.78147876319365 -8.411988702119153 0 0 0
1158 1 -8.400445561887935 -8.954753730317389 -13.25642306120012 0 0 0
1168 1 -8.317476122505685 -11.487197368111133 -11.707070656426527 0 0 0
1073 1 -11.41769750862999 -12.927277055654793 -13.656769716161707 0 0 0
1841 1 -13.637055513928113 -13.681243345101642 -9.41441851559649 1 0 0
1061 1 -11.065508700722779 -8.925499925683843 -12.780233639849662 0 0 0
1179 1 -8.06700907064623 -13.810811578245755 -10.143524358125816 0 0 0
1265 1 -6.836080533522373 -9.582730556174905 -11.474647591551749 0 0 0
1266 1 -5.455918749628401 -11.514355801215359 -12.100484476150847 0 0 0
1276 1 -6.507630182059095 -11.994410768968425 -9.888360639112818 0 0 0
1363 1 -4.035551421040626 -9.659325506015112 -11.901094547245597 0 0 0
1373 1 -3.9911593815044384 -12.166996006350537 -10.30859823853197 0 0 0
1166 1 -7.591531099358973 -9.980248417544477 -9.260437798843004 0 0 0
1264 1 -4.941764670583327 -9.979715548934188 -9.723920739720683 0 0 0
638 1 -4.363549702798116 -13.654518388831162 -12.732610359431549 0 0 1
1170 1 -6.927887277617299 -13.507515891645065 -12.30853974194715 0 0 0
1277 1 -5.307651062411754 -14.085477905349322 -10.386574818484096 0 0 0
1352 1 -2.6841717901041537 -11.598731466266162 -12.404607342248642 0 0 0
1374 1 -6.330985146462312 -14.362544903871763 -8.265637825187163 0 0 0
1255 1 -5.635639031734987 -9.074495567704371 -13.634137300940655 0 0 0
1364 1 -2.6266316538977126 -14.122323967832184 -10.920131050074751 0 0 0
1187 1 -3.5585468939764784 -14.520165230931426 -8.688639673310899 0 1 0
1362 1 -2.139261616853906 -10.060890531512685 -10.170664733509383 0 0 0
1459 1 -1.1874472407676162 -9.810960393523278 -12.354977204580129 0 0 0
1469 1 -0.9541861092659705 -12.138272518717786 -10.723246184682667 0 0 0
1458 1 0.609302003931349 -10.370493949682672 -10.569051098630531 0 0 0
1460 1 0.2859875150544049 -11.845949672581533 -12.944307267739052 0 0 0
1556 1 1.7102328376457994 -9.910637919643737 -12.74415250515621 0 0 0
1557 1 1.8473047413626311 -12.469187305179108 -11.110843967276434 0 0 0
1468 1 0.7709758428901825 -12.680719695119016 -8.976620062699201 0 0 0
1372 1 -2.1139029768168225 -12.595076832353143 -8.523779659102068 0 0 0
637 1 -1.4827293468709009 -13.709736181930653 -13.156909835113778 0 0 1
1565 1 2.3517556692244312 -10.925478116857983 -8.786700611838803 0 0 0
1284 1 0.1709675962041981 -14.209780081285508 -11.49370349460119 0 1 0
1467 1 -0.47008275014542455 -10.643416922949044 -8.412114800736703 0 0 0
847 1 2.8230146421272178 -12.020999332635435 -13.477084914387342 0 0 1
747 1 1.2633191224419207 -14.028421899363282 -13.45119377516225 0 0 1
1654 1 3.1666042667386645 14.462331494726932 -11.904773355776538 0 -1 0
1566 1 3.5474333660685975 -12.884706764647863 -9.430590054075786 0 0 0
1555 1 3.3194250057443266 -10.405085918030995 -11.032388081833943 0 0 0
1652 1 6.2755193140883225 -10.50174079701851 -11.513731187543751 0 0 0
1663 1 6.443698150335047 -12.930432130596195 -10.172895169531511 0 0 0
1664 1 4.492867776898054 -12.414699567908528 -11.731244720062065 0 0 0
1759 1 7.3365098868016805 -12.471096299674095 -12.28992422561259 0 0 0
1662 1 5.204434694818291 -11.004434360335418 -9.434837416256517 0 0 0
1757 1 7.980970578966746 -10.995959895974462 -9.919876039834769 0 0 0
1653 1 4.309146733313407 -9.977058316475077 -13.37165008293021 0 0 0
1765 1 8.186549490566223 -13.522019952520933 -8.28227593873119 0 0 0
1650 1 6.816302526749249 -9.078414294993538 -9.33178975241724 0 0 0
1553 1 3.941334501041583 -9.058598232964952 -8.754620017551094 0 0 0
1861 1 13.587468045498868 -11.178449096089507 -10.868171692187452 0 0 0
1747 1 9.07342707226051 -10.712645726446612 -12.178588997494778 0 0 0
1758 1 9.213883244266379 -13.13212526234824 -10.504027918672035 0 0 0
1862 1 13.042023685915156 -12.763139979321812 -13.144033171658943 0 0 0
1833 1 11.824170288311157 -10.689943162915851 -12.624622700980446 0 0 0
1842 1 10.8293399907462 -11.088913974970723 -10.448578005489443 0 0 0
1843 1 11.95402546649573 -13.203701147377439 -11.196457989889979 0 0 0
1844 1 10.342916810593126 -12.72319167588567 -12.76752360577322 0 0 0
1850 1 10.962913374085359 -13.54200600699159 -8.894715338382836 0 0 0
1860 1 12.582217670642516 -11.604853463321648 -8.71058979422628 0 0 0
1831 1 12.318580579315912 -9.126189480651071 -10.112232606470139 0 0 0
1745 1 9.703395275591928 -9.11628165989118 -9.77971656781784 0 0 0
1756 1 9.705291976386905 -11.536697946674158 -8.267330075842874 0 0 0
1048 1 -10.910918240991181 -4.939372893758431 -12.049916686749075 0 0 0
1059 1 -10.693963770431623 -7.423341925480597 -10.41484078649364 0 0 0
1060 1 -12.327615845575806 -6.990971647723629 -12.197445775166077 0 0 0
1157 1 -9.506010745428444 -6.922134914683783 -12.728622341297282 0 0 0
1155 1 -9.068402971376965 -5.341680131883903 -10.339205249660429 0 0 0
1058 1 -11.901605187306648 -5.446771736753007 -9.80405505753483 0 0 0
1165 1 -8.93824153285502 -7.816045711634598 -8.71802312649525 0 0 0
977 1 -13.484990940648073 -7.32314171895995 -10.08424703499357 0 0 0
1068 1 -11.696975595889597 -7.72835539785972 -8.347550446530693 0 0 0
971 1 13.60969962362312 -4.915487738364007 -11.544661264804844 -1 0 0
1145 1 -7.97768776153027 -5.000323946730385 -12.388701792588002 0 0 0
1046 1 -10.266631129425654 -3.345023481681448 -9.568458644897131 0 0 0
970 1 -13.00516085875564 -3.1874977745979205 -9.216218128747705 0 0 0
1057 1 -10.099318876370404 -5.739169706904558 -8.055975262043017 0 0 0
1156 1 -7.90162916297442 -7.361105698439867 -10.929756720156984 0 0 0
1361 1 -3.3804458246390947 -8.093970384868719 -9.409821116119208 0 0 0
1253 1 -5.084623709080404 -7.6091788359532035 -11.200919303191922 0 0 0
1243 1 -5.227680704800493 -5.20796064880507 -12.838454644963464 0 0 0
1252 1 -6.208718670722458 -5.558909763307229 -10.751804617461092 0 0 0
1254 1 -6.729414910976028 -6.968687412772785 -13.10912034471523 0 0 0
1349 1 -3.573647858203575 -5.688011769591295 -11.048685423100036 0 0 0
1263 1 -6.230808282874994 -8.031643630330365 -9.246038931897392 0 0 0
1251 1 -4.561264614901543 -6.076087473838713 -8.900534165501112 0 0 0
1347 1 -3.0567835297627663 -4.085461766656824 -8.817463666981741 0 0 0
1154 1 -7.383773040241782 -5.898098498178056 -8.522542459993801 0 0 0
1241 1 -4.713357628379429 -3.536671841370202 -10.49564368726425 0 0 0
1351 1 -4.005247036771053 -7.235318595765633 -13.443803494901065 0 0 0
1143 1 -7.4983141835929255 -3.4852321666428363 -10.057700272866578 0 0 0
1250 1 -5.724579920934567 -4.011613018290561 -8.321153397978664 0 0 0
1339 1 -2.522554104763964 -5.2904317154266245 -13.295110877906016 0 0 0
1350 1 -2.324317037869184 -7.693656884419594 -11.65680450546899 0 0 0
1554 1 2.176536608522113 -8.433657253784892 -10.405957475891798 0 0 0
1457 1 -0.5831785753835579 -8.28497553055947 -9.863961493273992 0 0 0
1447 1 0.4457616781925662 -7.841375829802448 -12.106288545846523 0 0 0
1446 1 -0.6805387248375059 -5.786199480548275 -11.510823289993112 0 0 0
1445 1 0.9888717085884124 -6.269234862148799 -9.735850759728613 0 0 0
1544 1 2.002452363703126 -5.9454178802926965 -11.998014571378349 0 0 0
1348 1 -1.8611494155749906 -6.202915796908565 -9.371204167610845 0 0 0
1444 1 -0.24515525907591318 -4.392182773559467 -9.13204352290779 0 0 0
1434 1 0.9008671338999292 -3.849243297391178 -11.301741809301392 0 0 0
1542 1 2.545762553205707 -4.4456228486942635 -9.558422538384148 0 0 0
1337 1 -1.968277545593569 -3.840975269655786 -10.817353942755648 0 0 0
1424 1 1.8826372723916815 -3.5068927235105303 -13.6077057624984 0 0 0
1545 1 3.2240999898752367 -8.026415703834173 -12.551373577208713 0 0 0
1435 1 -0.9310285575947415 -3.3888187141087585 -13.072322802692275 0 0 0
1651 1 4.9732080385878685 -8.50061474834457 -10.807536545586142 0 0 0
1746 1 7.943594247507173 -8.624503794647726 -11.445809835796224 0 0 0
1642 1 6.128630781704322 -8.102293030270943 -13.116593352087795 0 0 0
1532 1 3.652276085743905 -3.9432073084162784 -11.86984110612823 0 0 0
1543 1 3.8244026592578297 -6.507704964700318 -10.228479152827768 0 0 0
1630 1 6.429790800021221 -4.153587910210689 -12.395472525568469 0 0 0
1639 1 5.415007987949137 -4.450421644726559 -10.167373034621841 0 0 0
1640 1 6.636871906947979 -6.603612667069273 -10.770210568200525 0 0 0
1641 1 4.78135594626737 -6.046929732851238 -12.441369244450291 0 0 0
1735 1 7.634056037507184 -6.302361091425864 -13.065730324111804 0 0 0
1744 1 8.38989271717613 -6.988628211977032 -9.103294426437841 0 0 0
1733 1 8.140151817454393 -4.568539616985168 -10.561802619201561 0 0 0
1649 1 5.572122428894888 -6.993736984083815 -8.582867610230238 0 0 0
1638 1 7.222165119776379 -4.963245240429435 -8.359877450370405 0 0 0
1736 1 8.902830786392945 -8.293021029415016 -13.642743711952514 0 0 0
1859 1 13.33396649460708 -8.77407631510513 -12.380031737790452 0 0 0
1832 1 10.670652749719382 -8.783303557135216 -11.99309077338534 0 0 0
1724 1 9.18872314170095 -4.33837606191153 -12.757810100674932 0 0 0
1734 1 9.47914945027703 -6.609074300620635 -11.336363438533409 0 0 0
1820 1 10.907002627419049 -4.619993167811815 -11.073190765681208 0 0 0
1858 1 12.070154119795985 -6.826680583694201 -11.825803388951549 0 0 0
1819 1 12.695628930744563 -5.189835244741609 -9.339510489131088 0 0 0
1830 1 11.170715689956351 -7.056736471939578 -9.597180999837505 0 0 0
1732 1 9.987389783794837 -5.057848371179368 -8.840695736840868 0 0 0
1856 1 11.972823073742388 -4.391132490377402 -13.214403477866338 0 0 0
1822 1 10.431580360174204 -6.323940418613981 -13.550354313010324 0 0 0
1144 1 -9.186156215257544 -2.9152129285327675 -11.67211857231791 0 0 0
1047 1 -12.111372794139088 -2.90848298902805 -11.303895308000367 0 0 0
1035 1 -10.549094220361503 -0.8950163290490121 -11.180172600618677 0 0 0
1036 1 -12.28764809466383 -0.5564060263996549 -12.958708180641867 0 0 0
1132 1 -9.58579565966972 -0.6126397243658843 -13.356591028049623 0 0 0
1045 1 -11.435799043451832 -1.3539688814995934 -8.897453873859693 0 0 0
1033 1 -10.076102094993146 0.6238027176397196 -8.868046286227301 0 0 0
1130 1 -8.996890215759901 0.9495181087028026 -10.81184639643144 0 0 0
1025 1 -10.703821047169322 1.3880855670735102 -12.588205145206445 0 0 0
1142 1 -8.775202389937522 -1.4981940973491845 -9.414835292623671 0 0 0
1034 1 -11.739236834940412 1.1103265107722518 -10.547712544358037 0 0 0
964 1 -13.11581318856503 -0.9491386968402526 -10.623507769467095 0 0 0
956 1 -13.551288745248938 1.4961654812698946 -12.283114044874539 0 0 0
1037 1 -11.154476895025986 -2.5741936657763116 -13.492289444621264 0 0 0
963 1 -12.769577061290205 0.5755043101791912 -8.314497128614075 0 0 0
1338 1 -3.8376855411474455 -3.270555969266864 -12.62502044496752 0 0 0
1121 1 -8.117424744949439 1.2768428302868386 -13.05336056770328 0 0 0
1242 1 -6.468195063418642 -3.124909471844431 -12.14330719601796 0 0 0
1131 1 -7.71642173725485 -1.1737116439185407 -11.66050333473541 0 0 0
1230 1 -5.07786140718231 -1.2350266222986388 -12.040896496262636 0 0 0
1240 1 -5.937417521682929 -1.594380831356668 -9.690296407259705 0 0 0
1229 1 -6.194561190656918 0.7633679748108833 -11.487640031255552 0 0 0
1129 1 -7.177531408788056 0.2996648347541484 -9.255095284414926 0 0 0
1228 1 -4.4552880827974395 0.2965471903844463 -9.538175968066973 0 0 0
1336 1 -3.228366357429259 -1.612678572251733 -10.26386638663609 0 0 0
1326 1 -3.4791709935478288 0.7342512582424057 -11.805287325847043 0 0 0
1219 1 -5.099073880882189 1.1958015503955757 -13.543236006427879 0 0 0
1324 1 -2.834948593270788 2.3089447232159728 -9.345748566089515 0 0 0
1227 1 -5.638433814119184 2.3459618697449898 -8.962864339855148 0 0 0
1239 1 -4.18364122914606 -2.058625308802558 -8.098412338006735 0 0 0
1327 1 -2.1453156085756433 -1.3556279600610743 -12.47797111139712 0 0 0
1433 1 -0.42679550433306446 -1.8740324739353085 -10.69611248696381 0 0 0
1325 1 -1.634100169308585 0.26663180749047477 -10.089023153743428 0 0 0
1423 1 -0.6428832440464696 0.46027700789155723 -12.242937688975944 0 0 0
1422 1 1.186046380500743 0.11234715791149341 -10.541340183117851 0 0 0
1531 1 2.4886175927926626 -1.9141144577164368 -11.076084367575394 0 0 0
1520 1 2.205304437345351 0.4458678324446126 -12.652633352464495 0 0 0
1432 1 1.3764079700682732 -2.271490347470893 -8.89946719269292 0 0 0
685 1 0.7151136854281557 -1.465178449957948 -12.888654526971521 0 0 1
1335 1 -1.3712677244030527 -2.170437969632614 -8.491520004727857 0 0 0
1519 1 2.9966013164808682 -0.4256646669913522 -8.78286699000429 0 0 0
1518 1 2.766191283821639 1.9755938791409342 -10.350149561472875 0 0 0
1421 1 -0.0414059679383616 2.1609053203114534 -9.936674373049865 0 0 0
1431 1 0.0650591037451278 -0.25087579409373895 -8.379016964239833 0 0 0
1529 1 1.685279896252064 1.6265002323452542 -8.178201871867007 0 0 0
1521 1 3.381795802014965 -1.6417736861483103 -13.379016967854497 0 0 0
1616 1 6.793914607562668 -0.23303699577609116 -11.45224540517676 0 0 0
1628 1 6.951302733668735 -2.6092721560560115 -9.938164397600167 0 0 0
1629 1 5.199108020947163 -1.9857056943696971 -11.660120225192092 0 0 0
1617 1 4.990069227546426 0.3762871426348422 -13.253794839719012 0 0 0
1530 1 4.228882151618999 -2.529195334614716 -9.445253836127744 0 0 0
1627 1 3.9344240865389057 0.0368225151360253 -10.952814000190367 0 0 0
1614 1 7.183536469624313 1.3271056732800783 -9.169930214474906 0 0 0
1723 1 8.023958212673131 -2.3140481259691104 -12.113188913322203 0 0 0
1626 1 5.641774398140646 -0.4680651275603456 -9.295303632078678 0 0 0
1517 1 4.4170511616710915 1.5673441941084505 -8.730225397038755 0 0 0
1710 1 8.298157088345123 1.763099040055721 -11.303427773691512 0 0 0
1615 1 5.560855985486251 1.8737915514171561 -10.963440422946277 0 0 0
1721 1 8.526238964492675 -0.6795542655228033 -9.731050297112077 0 0 0
1712 1 7.823244583732057 0.1879265745321579 -13.654561663840036 0 0 0
1731 1 8.548804987494703 -3.1032288739731992 -8.131840523679791 0 0 0
1855 1 13.480745002832096 -2.4508844496177886 -12.936397099055712 0 0 0
1818 1 11.521389676854328 -3.205992263732517 -8.77874104276556 0 0 0
1808 1 12.977382539449158 -1.2510551241490049 -8.512370355493443 0 0 0
1810 1 12.555421781297737 -2.891678724775595 -10.886930298066083 0 0 0
1722 1 9.67981516663862 -2.6941164755057017 -10.42054694904419 0 0 0
1811 1 10.72119647665882 -2.343973728279474 -12.671480779152853 0 0 0
1711 1 9.487659206413602 -0.2223268670312173 -11.903977027571752 0 0 0
1801 1 12.296360042384189 -0.4584106048899468 -12.402929391301438 0 0 0
1809 1 11.283476866250014 -0.8485067862657196 -10.329000218075006 0 0 0
1799 1 12.879706795040471 1.0313030206819072 -10.14449853908543 0 0 0
1800 1 11.02600731500693 1.570524663684175 -11.783135472100485 0 0 0
1709 1 9.877747669787846 1.208507444274467 -9.68080375893053 0 0 0
1700 1 9.323132875745044 2.0187198926504806 -13.579399664947768 0 0 0
1128 1 -8.400508599457531 2.4361289256831817 -8.71700883338131 0 0 0
955 1 -12.976468481874802 3.104600163576613 -9.920764135314073 0 0 0
1012 1 -10.30082786665301 5.383864652047844 -11.923490592848326 0 0 0
1022 1 -11.234775419989443 5.038157397576143 -9.789378093575031 0 0 0
1023 1 -10.214593426403113 2.9820730502652957 -10.348440355268812 0 0 0
1024 1 -11.938485346247612 3.5237156710592394 -12.081095424856317 0 0 0
1118 1 -8.480577629449506 4.877182512557429 -10.188733017336364 0 0 0
1120 1 -9.205876568610655 3.3536863082170214 -12.498980239730166 0 0 0
946 1 -13.089207464687052 5.4580156416034065 -11.619694518678795 0 0 0
1010 1 -9.83695875483529 7.052304817272731 -9.55464393747652 0 0 0
945 1 -12.611691010744213 7.170739445954812 -9.235695259832587 0 0 0
1108 1 -8.672134832563607 7.204216420233379 -11.816215694080963 0 0 0
1011 1 -11.554266038495875 7.359491709841716 -11.315405995214478 0 0 0
1013 1 -12.05574226443567 5.934748603897113 13.751642351791302 0 0 -1
1001 1 -10.403598837874572 7.818141055720151 -13.443065028887103 0 0 0
1109 1 -7.5189689229551515 5.240756027334452 -12.311979778906986 0 0 0
1119 1 -7.302290670071401 2.931032303790559 -10.761343342798881 0 0 0
1217 1 -4.5567874144576965 2.7066768004176964 -11.131835697893607 0 0 0
1205 1 -4.299402484922227 6.694649655414725 -10.365936447305893 0 0 0
1207 1 -4.802170589472826 4.976851293152482 -12.787875473939376 0 0 0
1216 1 -5.74403592427376 4.799403978865943 -10.609030405326898 0 0 0
1218 1 -6.368750388539304 3.1517522182038036 -12.720751652731822 0 0 0
1215 1 -4.049645257464121 4.208636940975651 -8.81923543841444 0 0 0
1302 1 -3.1804247287667273 6.979822040868527 -12.698280052554674 0 0 0
1313 1 -2.9010029472235743 4.634303312044903 -11.010561881498518 0 0 0
1206 1 -5.797972546980306 7.17590002331827 -12.180469922437705 0 0 0
1107 1 -6.994970473596616 6.730203914811145 -9.987854975127478 0 0 0
1117 1 -6.846052567081593 4.395315137395311 -8.435955788518045 0 0 0
1315 1 -3.605398684037924 3.0650933589356484 -13.37210450027282 0 0 0
1311 1 -2.491816162369325 6.272501300851037 -8.744411938882111 0 0 0
1411 1 0.9456537385837791 2.4671007864257994 -12.016853316643754 0 0 0
1314 1 -1.7571520845905244 2.589085903264909 -11.633134930052814 0 0 0
1301 1 -1.4116480307598334 6.520978891143933 -10.900870028438936 0 0 0
1303 1 -1.9400455678059583 5.005881759256376 -13.18659965845852 0 0 0
1398 1 -0.30781652813511506 7.007934942871749 -12.963207063199311 0 0 0
1397 1 1.3681068026569978 6.396653733285543 -11.189671791390868 0 0 0
1409 1 1.5114611153051953 3.9701353311450696 -9.617980080601699 0 0 0
1410 1 -0.1909040753237452 4.5557547573687 -11.31924388764205 0 0 0
1312 1 -1.1665884010535574 4.13456953737732 -9.189580495142916 0 0 0
1408 1 0.38525257754333886 6.0996689918081515 -9.078745568490422 0 0 0
1508 1 2.463445167716392 4.487049701980126 -11.93201029227736 0 0 0
1497 1 2.2608167759190145 6.873100082737977 -13.572467971648376 0 0 0
1399 1 0.7942133040289932 4.83885737202888 -13.72661343714211 0 0 0
1506 1 3.042614064424038 6.0440667936064685 -9.485306769617806 0 0 0
1605 1 6.631578527190348 2.237181902797186 -13.097304704809323 0 0 0
1509 1 3.7527114990176127 2.3423038072224998 -12.525300127255479 0 0 0
1496 1 3.970335086507516 6.376021853483682 -11.786661063676663 0 0 0
1507 1 4.192981025973056 3.9251125761199575 -10.205994378781877 0 0 0
1602 1 5.793719617920397 5.788088811811516 -10.156596502820742 0 0 0
1604 1 5.380149599631865 4.132974713169332 -12.428345623516345 0 0 0
1593 1 7.010504361539306 6.140814326140351 -12.267961427228121 0 0 0
1603 1 7.02749312345888 3.88843841160579 -10.665935971760158 0 0 0
1699 1 8.19177800025403 4.168420886690509 -12.935874517744725 0 0 0
1613 1 6.107264136554521 3.4878399295049327 -8.406297900929143 0 0 0
1601 1 7.627683394520444 5.279681856809102 -8.380859213545328 0 0 0
1591 1 7.44500526463788 7.736174843440988 -9.88177083756856 0 0 0
1494 1 4.674011328966982 7.95346792761049 -9.33059214452467 0 0 0
1697 1 8.748025989558998 5.798227608171683 -10.583223644447807 0 0 0
1708 1 8.788161476446954 3.288043504599294 -8.942698090731664 0 0 0
1698 1 9.821692466407706 3.679711548421384 -11.073244615100887 0 0 0
1782 1 12.415008335751848 5.974450851933273 -13.422593531232371 0 0 0
1789 1 11.424382145212332 5.592369400976178 -11.037723108225219 0 0 0
1790 1 12.695690585154308 3.5101396984239805 -11.682973103130914 0 0 0
1788 1 13.131611936497217 5.059518875431177 -9.366286344459613 0 0 0
1798 1 11.57601620234008 3.1083452015826083 -9.470826093620513 0 0 0
1791 1 10.81211004255095 3.9609517809096637 -13.461952554434863 0 0 0
1688 1 9.831825367946264 6.050269569303282 -12.821106681588452 0 0 0
1696 1 10.361233947433783 5.121258787561036 -8.745990114857218 0 0 0
1787 1 11.975387465187188 7.09535203909671 -8.748202000664289 0 0 0
1780 1 12.91561023470116 7.443702567167932 -10.939158181259458 0 0 0
1686 1 10.208009295887434 7.700535151341164 -10.45804011804519 0 0 0
1695 1 9.102096933706315 7.26301058895238 -8.292510689967369 0 0 0
938 1 -13.277699543014537 7.954210942625213 -13.083721579161473 0 0 0
937 1 -12.723188363125573 9.470705979882581 -10.77595900844589 0 0 0
993 1 -10.054691964129905 11.733379347637179 -12.693012619311553 0 0 0
998 1 -11.141489214834438 11.36291912861309 -10.51788534352389 0 0 0
999 1 -9.973230790904992 9.291008791520898 -11.213664724252723 0 0 0
1000 1 -11.641152763694693 9.903929437537862 -12.812194413644024 0 0 0
1098 1 -8.86768149216449 9.762921791388116 -13.286321599440614 0 0 0
1009 1 -10.985635663899291 9.066505859053862 -9.000706292266827 0 0 0
933 1 -12.87451917829668 11.798114278134861 -12.154850211176772 0 0 0
997 1 -9.392858179410023 10.829912963216838 -8.839659802714115 0 0 0
1096 1 -8.304123252063519 11.1835672859056 -10.974403095005401 0 0 0
991 1 -9.624362945566224 13.082726546330498 -10.415434425828456 0 0 0
936 1 -12.298844099914586 10.97742043686253 -8.292109693061024 0 0 0
1106 1 -8.13440116209252 8.859135035658898 -9.42373169059745 0 0 0
996 1 -10.849821072121347 12.88965593922639 -8.186455257194769 0 0 0
1091 1 -7.933118403190042 12.87696873706945 -8.578573624208364 0 0 0
179 1 -7.28382130365279 11.618770253385598 -13.07992507659559 0 0 1
1097 1 -7.294471717753157 9.042813114536884 -11.502843180515063 0 0 0
1193 1 -3.869330720453931 10.723545665413287 -9.589076187230503 0 0 0
1194 1 -5.025154585527872 12.626854598401188 -8.926031692088713 0 0 0
1195 1 -4.33899767886664 9.02386610565613 -12.013356030982308 0 0 0
1196 1 -5.52979480628931 11.087845147577525 -11.340770470507785 0 0 0
1204 1 -5.464608492105139 8.699164985166384 -9.71344283203311 0 0 0
1095 1 -6.687830042400868 10.835219729877473 -9.197985447492155 0 0 0
1188 1 -4.077111464375454 13.005174497490607 -11.031741563172128 0 0 0
1285 1 -2.7867913898189194 10.991495648460106 -11.766902544815292 0 0 0
286 1 -4.616232922141366 11.5284177576427 -13.603071168205313 0 0 1
1300 1 -2.717715748632129 8.610527437418014 -10.250863041230732 0 0 0
178 1 -6.779343806302205 13.127434579949956 -10.842048054752421 0 0 1
276 1 -6.178525290896863 9.555981454069737 -13.64610853403326 0 0 1
1189 1 -2.983004417544441 13.383895382705468 -13.403176968848532 0 0 0
1291 1 -2.3877875946833953 12.468657125029509 -9.294634804580031 0 0 0
1395 1 1.7074720217664918 7.942217026326151 -8.846767078411414 0 0 0
1299 1 -0.9610566903263074 8.107076134452424 -8.49965709804517 0 0 0
1396 1 0.06744306353675356 8.519156381212923 -10.629051857483988 0 0 0
1290 1 -1.1743552678901992 10.495868030481592 -10.060787690766771 0 0 0
1292 1 -1.6669876579426557 8.92995680005313 -12.370101638257486 0 0 0
1385 1 0.3110165408267562 12.357736238992025 -9.832124465538428 0 0 0
1386 1 1.8100245664669181 10.408551359348959 -10.495261892262763 0 0 0
1387 1 -0.058385799571839314 10.888514148709419 -12.24328955485041 0 0 0
1388 1 1.1291742231859896 8.812874649084751 -12.765623390869699 0 0 0
1485 1 2.7576784151980664 10.748423589521053 -12.672405830167705 0 0 0
1381 1 1.382219847520794 12.731959221537757 -12.097669880993754 0 0 0
288 1 -1.349580323680792 13.014078671611713 -11.528339932585363 0 0 1
1495 1 2.8722214636126058 8.293897101065578 -11.249544385739982 0 0 0
1394 1 0.5015939404360008 10.018882213179602 -8.317301139469663 0 0 0
402 1 -0.33029791166681477 13.309612737445747 -13.69524172922973 0 0 1
1483 1 3.2574683911071656 12.308599373754078 -10.359952629087381 0 0 0
1493 1 3.30724355186568 9.879953797338363 -8.686592579110116 0 0 0
1592 1 5.712233062096059 8.111702022734473 -11.651137526598164 0 0 0
1484 1 4.459413295838983 10.145768245336647 -11.039308701574345 0 0 0
1582 1 7.362051444531934 10.222558799092674 -11.576212675816993 0 0 0
1590 1 6.223416044117629 9.877305913989662 -9.375574595814879 0 0 0
618 1 7.177478730833071 12.562800598324344 -13.08042025509993 0 0 1
1479 1 4.3427734195569005 12.543524018524739 -12.599884222708098 0 0 0
1583 1 5.588141058973642 10.543595882495879 -13.200925876603392 0 0 0
1580 1 7.743588282634741 11.807804875076247 -9.074136563692374 0 0 0
1581 1 5.942060916714061 12.136609435081638 -10.944180642620374 0 0 0
1486 1 3.992510134800961 8.763210254066237 -13.398388483595527 0 0 0
1687 1 8.480203137649655 8.11032622991354 -12.22964077113727 0 0 0
1482 1 4.912604400783325 11.784133373673555 -8.659053522858336 0 0 0
1673 1 8.462855178145476 10.487169754396582 -13.655732300277183 0 0 0
1677 1 8.910612412745776 12.133541448790613 -11.22898128567749 0 0 0
1778 1 13.522419659464349 9.137720347826026 -8.548203888071662 0 0 0
1781 1 11.31020826856433 8.072126459836678 -12.627862087887255 0 0 0
1685 1 8.954851113549205 9.688318093485446 -9.72464050845264 0 0 0
1772 1 13.222596924538566 11.504365940544847 -9.993426669566762 0 0 0
1676 1 10.592860975461695 11.606705402117985 -9.633351477725846 0 0 0
1678 1 10.031431901385472 10.03195034741329 -11.921911336797507 0 0 0
1774 1 12.9803014354067 9.957843340463576 -12.509533388983613 0 0 0
1779 1 11.796527052238526 9.50530668055264 -10.269007265332121 0 0 0
1773 1 11.715085349711062 11.884933186792214 -11.878561098352204 0 0 0
1769 1 9.920417817236943 12.568164348196238 -13.56943614945387 0 0 0
932 1 -12.518191028851463 13.296503110564004 -9.979682811701052 0 0 0
1090 1 -8.484379856555353 13.647174223964186 -12.536696799922668 0 0 0
992 1 -11.32237148450908 13.682185795524934 -12.142739311453113 0 0 0
1267 1 -5.721365223925978 13.535339895923414 -12.981171950244043 0 -1 0
1289 1 -0.7573264769021595 14.54522334380222 -9.185122742333352 0 0 0
1567 1 1.8392462188776424 14.288620813606684 -9.814382245258031 0 -1 0
620 1 5.898421879846454 14.53121110443923 -12.505288775034806 0 0 1
1577 1 8.619498055521879 -14.486257220626637 -12.94434077732627 0 1 0
1478 1 4.886006729432667 14.261493354998166 -10.210087054855574 0 0 0
1576 1 7.566735233312391 14.050002147006637 -10.779959041848766 0 0 0
1579 1 6.492838110464097 13.700552244855828 -8.583419504071681 0 0 0
1771 1 12.114336755533811 13.554348742795547 -9.515023025100422 0 0 0
1675 1 9.351042566053524 13.646531892587031 -8.95828683220317 0 0 0
731 1 11.367379256199355 14.394569560807266 -13.368173182093608 0 0 1
1672 1 10.35200173381954 13.94992738254593 -11.179306826448762 0 0 0
1768 1 13.136125135881999 13.863640466290548 -11.755225531260098 0 0 0
986 1 -12.660033611894029 -10.575431562141175 -4.491002274794415 0 0 0
1077 1 -9.88204189214532 -10.70851889667355 -4.982748009000982 0 0 0
1078 1 -11.51539326542632 -10.17861308350055 -6.708050017675784 0 0 0
1079 1 -10.422061620515223 -12.245574713600469 -7.41593079592575 0 0 0
1087 1 -11.408167273737561 -12.585550300198642 -5.19682686085557 0 0 0
1086 1 -9.80469204138235 -13.106657454410161 -3.3895305604820436 0 0 0
935 1 -11.851688778137476 -14.090375989340837 -7.516987890931599 0 1 0
1176 1 -8.83830688357996 -10.34278732807065 -7.156748012954099 0 0 0
987 1 -13.093569337589372 -12.173183397585657 -6.841133446452265 0 0 0
1185 1 -8.713449103588335 -12.781955269193817 -5.5055261050612145 0 0 0
1094 1 -9.158823651689085 -14.358682252808466 -7.991845598692688 0 1 0
989 1 -12.431589537958894 -13.065848149654459 -2.96068882787781 0 0 0
1184 1 -8.299393556350335 -11.091650264745008 -3.1205325934355894 0 0 0
1085 1 -11.08429886711873 -11.127365117248587 -2.84059205894053 0 0 0
1183 1 -9.28427361707158 -9.133379216213687 -2.5447435522279314 0 0 0
1275 1 -4.829604150914827 -12.425003278606871 -7.930238995179619 0 0 0
1371 1 -3.3269289675479286 -10.51998855446704 -7.979656157890199 0 0 0
1177 1 -7.604781758196409 -12.456377937430096 -7.6039753925397084 0 0 0
1175 1 -7.09003171312766 -11.005755860082235 -5.188038144339737 0 0 0
1273 1 -4.473544998273349 -10.952276142027927 -5.692619921461729 0 0 0
1274 1 -6.053507395459771 -10.609119706556609 -7.472487614404793 0 0 0
1282 1 -5.900962897109339 -12.88191461850934 -5.7739740198020515 0 0 0
1280 1 -5.399181114469819 -11.196723868581808 -3.426195746357358 0 0 0
1281 1 -4.098135383865003 -13.272730868831822 -4.1289831800464345 0 0 0
1092 1 -7.069973196775933 -13.150512758152209 -3.5079332892087294 0 1 0
1379 1 -3.0650935416915495 -12.906760784310338 -6.226483362928703 0 0 0
1271 1 -3.751517953531282 -9.33898241696729 -3.3369862819117113 0 0 0
1377 1 -2.5988760321670927 -11.369159050817922 -3.722898968218873 0 0 0
1173 1 -6.6218614904675 -9.267406936800342 -2.9231589438230454 0 0 0
1369 1 -2.772802127656526 -9.003082062015817 -5.453299862671196 0 0 0
1370 1 -1.5679163661793236 -10.93672253953965 -6.281379432130499 0 0 0
1378 1 -1.2503735209314986 -13.405773717210716 -4.48201336861697 0 0 0
1475 1 -0.3104538764813132 -13.010789667932048 -6.780357341006892 0 0 0
1466 1 1.297681999072374 -11.272665067223626 -6.595083090867774 0 0 0
1473 1 1.4885549584908286 -13.498638880976435 -5.03967399281327 0 0 0
1368 1 0.21582078830775941 -11.375048113352857 -4.478295634005439 0 0 0
1574 1 2.521008602104912 -13.2386818488397 -7.172105901636118 0 0 0
1463 1 1.9169435494245697 -9.680476120378245 -4.282130974750391 0 0 0
1367 1 -0.9979932241005418 -9.347029317868435 -3.8068395120490006 0 0 0
1471 1 2.1205048763731487 -12.079668900499223 -2.7030277710310386 0 0 0
1563 1 2.8529879386104664 -9.376810911043059 -6.572559370496176 0 0 0
1465 1 0.12737106776753215 -9.19455431731324 -5.945565361975709 0 0 0