LAMMPS data file via write_data, version 2 Aug 2023, timestep = 0, units = metal

1873 atoms
3 atom types

-13.759053642535239 13.759053642535239 xlo xhi
-14.456781823647384 14.456781823647384 ylo yhi
-13.790809836751897 13.790809836751897 zlo zhi

Masses

1 55.847
2 1.008
3 1.008

Atoms # atomic

1475 1 -10.416286973560346 -11.450132963271118 -10.125494979273551 0 0 0
1476 1 -10.780444973080204 -10.12815128327825 -12.172257795168093 0 0 0
1645 1 -12.95777272063688 -11.31312329092829 -11.410598640873918 0 0 0
1650 1 -11.170336787684736 -13.02866975226668 -11.838613735954402 0 0 0
1474 1 -8.994077233103045 -11.675968704456753 -12.721648257234298 0 0 0
1477 1 -12.339973568102694 -9.940218259432077 -9.673341872176314 0 0 0
1485 1 -8.572165224878292 -13.059461103967138 -10.624226189973731 0 0 0
1644 1 -12.499815079933699 -12.744118472244638 -9.41659732864392 0 0 0
1643 1 -13.053357201194512 -14.269036058133493 -11.168468015306402 0 0 0
1473 1 -13.39601379781014 -10.001344363943385 -13.3572343220192 0 0 0
1541 1 -10.589573514319829 -14.347209440489165 -9.801543364796155 0 1 0
1487 1 -8.422898852778648 -10.090576565226476 -10.886705660559961 0 0 0
978 1 -13.556688301394344 -12.918382191398711 -13.283836703070477 1 0 0
1488 1 -9.615969205463905 -9.97929912948587 -8.256998684072343 0 0 0
1129 1 -11.688987647010745 14.440932770297353 -13.620415093228887 0 0 0
1486 1 -7.804103346624749 -11.40887235152291 -8.812929286640824 0 0 0
1306 1 -4.639935705914327 -13.241725451169032 -11.816056905672605 0 0 0
1307 1 -6.003425915474633 -12.972943943069577 -9.228349023654452 0 0 0
1308 1 -3.97283767404649 -11.766859512527232 -9.91202678237206 0 0 0
1504 1 -5.774461805178932 -10.236366183517283 -9.588336275437483 0 0 0
928 1 -6.557820601091938 -11.65445463750844 -11.203928664008492 0 0 1
1291 1 -4.624668888921125 -10.240789913420581 -12.097131967900522 0 0 0
930 1 -7.110503113155456 -13.218281327815223 -13.178280442078417 0 0 1
852 1 -6.98555589658143 -10.37570722075781 -13.295379058793662 0 0 1
1131 1 -2.613718505869034 -11.777754161857104 -12.386330626979236 0 0 0
850 1 -2.537261915517208 -8.87975647779669 -12.80359979342643 0 0 1
1328 1 -3.846928999009682 -8.889018188084183 -10.213418199428906 0 0 0
1703 1 -3.3331848728485554 -10.159398683203673 -8.11734951015244 0 0 0
1325 1 -1.9660485296916388 -13.324083786200607 -10.493185830522506 0 0 0
1142 1 -1.9483009459321767 -10.37800414249087 -10.70616457439186 0 0 0
1141 1 -0.13945207918733793 -11.866383620681724 -11.167114712744633 0 0 0
1346 1 0.4054180510039327 -13.383254803788505 -9.095173663719585 0 0 0
1348 1 0.4922589988960926 -10.495249385269645 -9.334487460612038 0 0 0
1159 1 1.6484753396664864 -13.52805076895044 -11.594202809289627 0 0 0
1161 1 1.9879810982162134 -10.681046899577598 -11.841747049461354 0 0 0
1160 1 2.3668359474452423 -11.902874869175163 -9.846472380735818 0 0 0
1542 1 -1.4422950281066598 -11.766620162138707 -8.677902614178617 0 0 0
1130 1 -0.8590841604345822 -13.476086933380149 -12.951965007603109 0 0 0
839 1 -0.6155993507020643 -10.550872947126209 -13.214380320013687 0 0 1
1163 1 8.554203612121114e-06 -9.072807062419582 -11.480819082510322 0 0 0
1162 1 2.4722217986749833 -9.042218485309022 -10.01941145307554 0 0 0
916 1 1.115107546289181 -12.173808343779632 -13.5803868000078 0 0 1
1326 1 -1.387831819807527 -8.88758359335014 -8.876921371663457 0 0 0
1026 1 3.6189954621893747 -12.228169969406148 -12.360416396145855 0 0 0
1036 1 5.686580628661204 -10.92543790894313 -12.9392246286144 0 0 0
1179 1 4.219633169220334 -13.470982240475262 -10.227139636200077 0 0 0
1200 1 6.375347722187115 -12.31961116290553 -11.02049372986984 0 0 0
1181 1 4.487257873589549 -10.729056568148376 -10.489409458876493 0 0 0
900 1 5.622723635874543 -13.77567945802949 -12.661213175930634 0 0 1
1386 1 6.760233125414139 -13.521284294502426 -9.00708333543599 0 0 0
1201 1 6.990789979485733 -10.892478350811958 -9.287012415099035 0 0 0
1198 1 8.249922128348349 -13.882752324005201 -11.524904253456981 0 0 0
1202 1 6.384747693556314 -9.436129784651548 -11.23963181622679 0 0 0
1057 1 8.226963359612576 -11.001313586287338 -11.720316574175126 0 0 0
1037 1 3.872721627325898 -9.35689994153206 -12.51401020182521 0 0 0
1054 1 7.59825901753165 -12.494827263638749 -13.422376386465306 0 0 0
1182 1 5.07787425552651 -9.226898806146977 -8.785749298358516 0 0 0
1180 1 4.749488769032457 -12.075432162061894 -8.329797219907192 0 0 0
1056 1 7.630616219275641 -9.607168995545459 -13.7395866428542 0 0 0
1199 1 8.935065058983238 -12.401175904251337 -9.673140279957346 0 0 0
1221 1 8.965452501506729 -9.463741212854263 -9.943018639570353 0 0 0
1074 1 12.58061472570457 -12.634398424719391 -10.74482707634307 0 0 0
1055 1 10.227499706858818 -12.554320642225111 -12.264649447328791 0 0 0
1077 1 10.249296854750238 -9.734813094304853 -12.41576885794544 0 0 0
980 1 12.198523824469063 -11.195990256150914 -12.83961637245288 0 0 0
1076 1 10.805856551143535 -10.975021879003894 -10.510703432154504 0 0 0
1096 1 13.206170106907788 -11.147719706739666 -8.939214984833626 0 0 0
982 1 12.795225205758907 -9.627265502491205 -10.962577504133936 0 0 0
1219 1 10.63286190752266 -13.948515111781065 -10.125377360145128 0 0 0
1242 1 11.458452214341872 -9.493665192861725 -8.598717956108064 0 0 0
1020 1 12.07237358388706 -14.243151486551392 -12.49650654423314 0 1 0
1767 1 13.237316010477791 -14.15706709100397 -8.702216068408628 -1 0 0
1240 1 11.349211319091019 -12.50772795868984 -8.374704554039539 0 0 0
1285 1 -8.805973686342561 -8.691447712170499 -13.051032919104186 0 0 0
1286 1 -10.671100789338904 -7.275482832425648 -12.2731533630101 0 0 0
1478 1 -12.687661123855753 -8.500550256094835 -11.78280981456627 0 0 0
1479 1 -12.135191254221306 -7.03504419541888 -9.965029635820164 0 0 0
1480 1 -12.478750822995705 -5.622558109274646 -11.996960167560534 0 0 0
1489 1 -10.210014590531763 -8.589692035580132 -10.234785412785907 0 0 0
1490 1 -9.485806572542327 -7.124170357398209 -8.516983035101891 0 0 0
1491 1 -10.138309697307292 -5.654482285943338 -10.489391527212653 0 0 0
1287 1 -10.650363224515296 -4.278552191127851 -12.741319693551855 0 0 0
1492 1 -9.45339226069079 -4.1064023947127914 -8.748088711282296 0 0 0
666 1 -8.883737257286947 -5.97752649861423 -13.2015466004894 0 0 1
1481 1 -11.954998119687199 -4.078582023513373 -10.19131442029996 0 0 0
1293 1 -8.150686229619787 -7.29645036961215 -11.104833269610365 0 0 0
1508 1 -8.280305847144746 -4.3504130636585 -11.466815103477348 0 0 0
667 1 -13.267411318228682 -7.174670971401079 -13.709692492717029 0 0 1
1292 1 -6.39851214976425 -8.690246756211309 -11.506145237822683 0 0 0
1506 1 -7.6936473370617176 -8.803512441384555 -9.144527066905866 0 0 0
1329 1 -4.418134257696117 -7.432462525103377 -12.283860696551322 0 0 0
1309 1 -6.168959648584527 -5.8839591404936975 -11.931094367266033 0 0 0
1331 1 -4.22962539224824 -4.6393275637516265 -12.570956249260515 0 0 0
1330 1 -3.6459769260909507 -5.881882403225269 -10.550272415664178 0 0 0
1527 1 -5.592352667010861 -4.463256366051533 -10.093739291826182 0 0 0
1525 1 -5.6457656429731315 -7.352600625063887 -9.777770096969473 0 0 0
1507 1 -7.557049928245718 -5.745332145842042 -9.4203078074281 0 0 0
1548 1 -3.0511884037942796 -4.405502797897208 -8.734906070244817 0 0 0
1546 1 -3.1752110839327727 -7.321274291178401 -8.529112896641472 0 0 0
756 1 -6.85471471576346 -7.409868679220775 -13.724665279818732 0 0 1
1143 1 -2.2954704903460286 -6.1589735434552075 -13.078095698934478 0 0 0
1350 1 -1.8985575838340267 -7.491266620459819 -10.909105547935313 0 0 0
1352 1 -1.7808699897793066 -4.627080944937148 -11.248271942029595 0 0 0
1164 1 0.662087064050441 -7.536408256982746 -9.591033659468764 0 0 0
1185 1 0.814823466006235 -4.691335381531561 -9.721835008723938 0 0 0
1028 1 0.18988558410164913 -6.173287345817114 -11.59645563715407 0 0 0
1039 1 2.0842045317813707 -4.905238126146907 -12.166376937858901 0 0 0
1027 1 2.0334710647620913 -7.692993903169075 -12.026545844379665 0 0 0
1351 1 -1.1435155277192788 -5.891410252118627 -9.141497299660912 0 0 0
743 1 -0.4880149969887917 -7.6268572880066765 -13.471418488527373 0 0 1
1183 1 2.743553736767449 -6.291755895791136 -10.245377262797748 0 0 0
1042 1 2.8154369251775577 -3.4998432880925208 -10.368579038893674 0 0 0
1165 1 0.3146793982232534 -3.297305066311621 -11.773626320983508 0 0 0
646 1 -0.39117392736028833 -4.883653252649735 -13.612106727497336 0 0 1
1145 1 -2.173828413546474 -3.3276416448605755 -13.129835985528034 0 0 0
1206 1 3.294500923958644 -4.675172629043811 -8.36038237774008 0 0 0
1038 1 4.474488582457376 -7.894370088068219 -10.72186412764146 0 0 0
1040 1 4.710434880032949 -5.002827143371627 -10.846791161797391 0 0 0
1060 1 6.397273824458519 -6.546146430710878 -11.422081368043377 0 0 0
1204 1 5.068471187920746 -6.341267245329313 -8.823893422470448 0 0 0
1059 1 7.082345666100345 -7.89382968643501 -9.42558666073286 0 0 0
1061 1 7.216189618668551 -5.130642516899762 -9.545558051098634 0 0 0
726 1 3.9981384459915965 -6.535483076354626 -12.588271987295126 0 0 1
1058 1 5.816570170901059 -8.00990340546289 -13.298807280227592 0 0 0
1062 1 6.8185857076625105 -3.73533650808902 -11.593672045632061 0 0 0
1041 1 4.1398629795611726 -3.585090519234152 -12.944452414937507 0 0 0
1079 1 8.329508464896112 -8.172821273287127 -11.858591357065468 0 0 0
629 1 6.029746537015875 -5.126151867075151 -13.516548633555589 0 0 1
1063 1 5.452933305198577 -3.4955049348480873 -8.974008866297586 0 0 0
1081 1 8.576243036161127 -5.220724133175359 -12.127767218605404 0 0 0
999 1 13.642666882742027 -5.282112896927771 -9.639218253983477 0 0 0
1078 1 10.882685875354891 -8.095586870022785 -10.604653833977329 0 0 0
1647 1 13.522954319717947 -8.2803522060801 -9.185845067756993 -1 0 0
984 1 10.456783010184083 -6.755629181299349 -12.488404309727331 0 0 0
998 1 13.045967578359406 -6.957220324620446 -11.220044130056788 0 0 0
1000 1 11.038856663202733 -5.325827318392273 -10.648691296633064 0 0 0
1080 1 9.096745323065047 -6.568890671245059 -10.130355417630557 0 0 0
1098 1 11.717705649211645 -6.625949618652229 -8.703437180955298 0 0 0
983 1 12.285085118448439 -8.30229061899681 -13.076370893685583 0 0 0
987 1 10.549653900157054 -4.037731827300522 -12.787623368036494 0 0 0
939 1 13.157848197687276 -4.029442568143461 -11.52281499779028 0 0 0
986 1 9.168191996540326 -3.6786533203132166 -10.271638348990974 0 0 0
1002 1 11.77063613401987 -3.9617788346374603 -9.024514914034775 0 0 0
938 1 12.512860384247041 -5.545219682421058 -13.247027501341234 0 0 0
1294 1 -9.993702668844275 -2.685292050606895 -10.826166572673747 0 0 0
1482 1 -12.437896158274427 -2.7533237945249045 -12.224466681000823 0 0 0
1493 1 -11.678528684481435 -1.1005703699405434 -10.433629576144666 0 0 0
1510 1 -9.233072174574836 -1.2387390939540381 -8.97685516131195 0 0 0
1295 1 -9.68373461253962 0.17041750658340682 -11.100889213078831 0 0 0
1494 1 -11.053747866893781 0.298272975719156 -8.469428812229488 0 0 0
940 1 -12.333126393236551 0.12728876166140424 -12.488935067337412 1 0 0
573 1 -10.468716277234652 -1.3735718833969077 -12.844029072040247 0 0 1
1512 1 -9.058617767900696 1.5509150829715974 -9.231376414904574 0 0 0
1495 1 -11.654506911023738 1.5601072038886183 -10.545198711846053 0 0 0
1296 1 -10.220909422669965 1.4125877969310565 -13.121017638528288 0 0 0
1312 1 -8.658156813618827 -3.026414713780186 -13.309964865019833 0 0 0
1658 1 -11.26939676761291 -2.566097880570931 -8.166308569032985 0 0 0
945 1 -13.600045568118574 0.1619609600133085 -9.850771285971664 1 0 0
1314 1 -8.552290559746838 -0.1771692054834606 -13.521983587446817 0 0 0
1483 1 13.759036812079067 -2.558747447338769 -9.741619401528268 -1 0 0
1313 1 -7.898006737509533 -1.5201402374034796 -11.521152476600182 0 0 0
1311 1 -6.104078921883553 -3.1246328412647593 -12.065802732176294 0 0 0
1332 1 -3.58993240476579 -3.230052157143911 -10.684094360001943 0 0 0
1316 1 -7.637671666331569 1.4223203099719584 -11.75927338980671 0 0 0
1529 1 -7.422493544142006 -2.9076707851960606 -9.54075678328431 0 0 0
1315 1 -7.181730914052661 -0.0857431266498736 -9.7673730533093 0 0 0
1333 1 -4.1203370943826965 -1.7683644742587887 -12.72439957317538 0 0 0
1335 1 -5.964188401854329 -0.09961040277169353 -12.260245389017019 0 0 0
1334 1 -5.420746942253702 -1.5715609846939476 -10.290584078164725 0 0 0
1147 1 -3.511937787822136 -0.16764846492278096 -10.940990631496575 0 0 0
1356 1 -4.781057430007145 -0.0732217879424919 -8.413564092503957 0 0 0
1135 1 -5.298740779972988 1.3076578916333563 -10.408936813347776 0 0 0
465 1 -3.8620700472648775 1.115465339782233 -12.948028951256132 0 0 1
1354 1 -3.089887867307377 -1.6636618108453085 -9.022522511408916 0 0 0
1170 1 -2.9133242440106724 1.2497878864572467 -9.039229118667915 0 0 0
1166 1 -1.0982681718995106 -3.2085427646834006 -9.44593799646228 0 0 0
1148 1 -1.5751751282164523 1.249416828770057 -11.570454999798054 0 0 0
1146 1 -1.7440440079540434 -1.82778549700007 -11.292225962607311 0 0 0
1167 1 0.40380915084699076 -0.5736191856230448 -11.90907265442574 0 0 0
1187 1 0.9653700169212236 -2.0010500915440073 -9.908898989080715 0 0 0
1168 1 -0.9033505372174133 -0.36749340593612345 -9.632665472639326 0 0 0
1189 1 1.0169060619499444 0.8926348856547879 -10.211807692220624 0 0 0
1029 1 2.3253416447234336 -2.05404683948324 -12.427853831030706 0 0 0
1030 1 2.3073891763407097 0.6572735853297189 -12.647621105930172 0 0 0
561 1 -2.0881449440931537 -0.5247838740953163 -13.261980700181175 0 0 1
1044 1 2.997461793021838 -0.6641706144533366 -10.669425224142152 0 0 0
1169 1 0.5684546599814144 2.353602095128343 -12.340678637800522 0 0 0
1210 1 3.0828053489878258 2.162135682575757 -10.840899159838985 0 0 0
1208 1 3.5905453579073345 -1.9620825039860037 -8.57631422564629 0 0 0
1043 1 4.851152268865551 -2.2012029386806287 -11.049018056037735 0 0 0
959 1 6.815069207490577 -0.9744019451335681 -11.670609067812595 0 0 0
1064 1 7.030696561216459 1.8208396501591348 -11.997855478386857 0 0 0
960 1 5.025060889701614 0.6735148361646068 -11.261895614444462 0 0 0
1083 1 7.3101775443662795 -2.292072675100002 -9.745733000721982 0 0 0
1065 1 5.475931099740542 -0.6952541231887128 -9.222627033910506 0 0 0
1209 1 3.6581486948368216 0.8827344970510396 -8.849098519464874 0 0 0
547 1 4.382723237882939 -0.8476056738547868 -13.098870954280425 0 0 1
1084 1 7.420057534808478 0.5415306518094898 -9.923687541608876 0 0 0
1228 1 5.627561730575831 2.2193127474615633 -9.533086997457278 0 0 0
450 1 4.271757713943703 2.0102919474217362 -13.334298050673391 0 0 1
531 1 6.207194172078353 -2.3818933841399836 -13.602869778774043 0 0 1
970 1 8.707254878489483 -2.431379256092386 -12.279293847750242 0 0 0
1085 1 8.975979679158172 0.24151964762712552 -12.459297810786023 0 0 0
988 1 11.283425909923992 -2.5146551737381397 -10.968575447696358 0 0 0
1003 1 11.474091997911493 0.21316941059871652 -11.22667500906561 0 0 0
1004 1 13.22438886652349 -1.2571555285737794 -11.813868251294805 0 0 0
1102 1 9.217336824061814 -0.9984240049564903 -10.419453965327499 0 0 0
1104 1 9.41705035681197 1.7228377772329058 -10.679125896715842 0 0 0
990 1 10.811349071272367 1.6587298904664092 -13.132519203779736 0 0 0
989 1 10.748004330676594 -1.1353097176272815 -13.016196636374959 0 0 0
947 1 13.462263994828717 1.5717731135313944 -11.837818931493233 0 0 0
609 1 12.48652925752894 -2.717223748232726 -13.570712295281124 0 0 1
1113 1 11.801292862837265 -1.0725873339942247 -9.258415156889654 0 0 0
1115 1 12.078975826544948 1.7404774482731238 -9.307770754360128 0 0 0
1103 1 10.032895355522761 0.6203041386658192 -8.668684028017365 0 0 0
1101 1 9.798362520926428 -2.2420720602623483 -8.366337705020612 0 0 0
415 1 12.765652835644644 0.19295220016426207 13.721211812439957 0 0 0
1289 1 -12.144858525124938 2.8630321702352948 -12.67361783639291 0 0 0
1297 1 -9.673607719270224 2.8563850964202455 -11.40418514762954 0 0 0
1299 1 -11.489491703115995 4.35575932145561 -10.746672865601612 0 0 0
1318 1 -9.43477332027842 5.7860397866262705 -11.530774184718782 0 0 0
1514 1 -10.968595318298666 3.0168474234609324 -8.793706015463503 0 0 0
1319 1 -10.918526203892522 5.9266027137176795 -9.088985184735801 0 0 0
1317 1 -9.021434050704224 4.4866275378510405 -9.658696887382167 0 0 0
1300 1 -12.001513229348156 5.769474612884283 -12.806375067668723 0 0 0
1498 1 -12.892518075119131 4.590147883793486 -8.229403296302939 0 0 0
1341 1 -8.961076536460041 7.321159622227428 -9.854649169816987 0 0 0
1320 1 -11.429460679894287 7.297737439600953 -11.006807105036374 0 0 0
1497 1 -13.463713590416859 3.075657952028644 -10.022495293941743 0 0 0
1499 1 -13.3059931058828 6.064115561153903 -10.384909153609648 0 0 0
1298 1 -10.015473707594031 4.242029062031877 -13.267034723256318 0 0 0
1516 1 -12.749640025653097 7.583221192322151 -8.679996587174877 0 0 0
281 1 -9.97763619653572 7.035072909217741 -13.644671712973448 0 0 1
1136 1 -7.693391360951182 4.243043274839225 -12.132357090384438 0 0 0
1151 1 -5.116864343468045 4.170231724144633 -10.64780813637185 0 0 0
1337 1 -7.079292384702663 2.8406831604514675 -9.9291229271444 0 0 0
1339 1 -7.010831096320935 5.57126879712648 -10.313394427790762 0 0 0
1358 1 -4.632028759956716 2.7875199795897476 -8.61522497447729 0 0 0
1360 1 -4.582248610322358 5.69468334111343 -8.934822969752034 0 0 0
1173 1 -3.177922998885517 5.431863656981632 -11.482692604541642 0 0 0
367 1 -5.649764046928873 2.7466554591780667 -12.535954300088134 0 0 1
1149 1 -3.3124069922393904 2.6985049465117346 -11.218195121472464 0 0 0
1152 1 -5.6831246698808275 5.394059393741012 -12.762224070142084 0 0 0
1153 1 -5.027053846413747 6.96311033473823 -10.987940949430207 0 0 0
1137 1 -7.5973146282588075 7.052055741263759 -12.416300620933166 0 0 0
1340 1 -6.369390489118423 7.240058443880708 -8.590512773656801 0 0 0
1150 1 -3.642928574473208 4.008261031882329 -13.198167712529951 0 0 0
1023 1 -3.7531999362326367 6.78870700936991 -13.553076303866728 0 0 0
1172 1 -2.6985296077821808 4.198494746226027 -9.269595272117709 0 0 0
1397 1 1.768040106740603 2.4878345885560282 -8.426372588107887 0 0 0
1174 1 -2.557411063627578 6.928467468910503 -9.585271897719064 0 0 0
464 1 -1.9662914868899826 2.5559361758724517 -13.70306685568991 0 0 1
1171 1 -1.1939126892398928 3.9723309614301474 -12.049204789534656 0 0 0
1191 1 -0.7985720303337445 2.4797649921162215 -9.803827592369139 0 0 0
1046 1 0.6845974785808089 5.3844394459231975 -12.747807128750479 0 0 0
1193 1 -1.211629129162592 6.768907032121865 -12.295475671555433 0 0 0
1212 1 1.4016694674140204 6.666846209374468 -10.882900053304464 0 0 0
1190 1 1.3006643022855666 3.7859805915999534 -10.589125440465523 0 0 0
1192 1 -0.5279802432117098 5.429596707639648 -10.189103513816933 0 0 0
1211 1 1.8686220474366433 5.306928174177953 -8.777744578285978 0 0 0
1045 1 2.4824445294916586 3.6286148140498273 -12.956526426588008 0 0 0
1048 1 2.8001500594841673 6.4317677160622875 -13.35103668492214 0 0 0
1399 1 0.04706356062318129 6.85108873794257 -8.306343942870996 0 0 0
1033 1 0.7498377669251237 8.119094736071476 -12.880976679312104 0 0 0
1067 1 3.1515244804641327 5.0646299434559285 -11.159733766510202 0 0 0
1086 1 5.158709363637389 3.3364620385207058 -11.460328504351446 0 0 0
1106 1 7.705493986369355 3.3832607774904897 -10.147225059779615 0 0 0
1066 1 4.584208989507758 4.579183889638172 -13.403681446702125 0 0 0
1068 1 7.194702981377684 4.639506121760094 -12.122025329162527 0 0 0
1089 1 5.282658379596128 5.997906312893631 -11.56025163498955 0 0 0
1070 1 5.064992023607964 7.222418101244768 -13.415239737150843 0 0 0
973 1 7.4592206653853275 7.596814268949478 -12.18355181650884 0 0 0
1233 1 3.8681805047618276 6.582402439876136 -9.359371920100347 0 0 0
1231 1 3.763914925741261 3.7220524357776856 -9.081834686985605 0 0 0
992 1 7.892390716304956 6.257810044542003 -10.346213809477884 0 0 0
1087 1 5.709374648371071 4.890560894245622 -9.641910899798157 0 0 0
1107 1 8.350162333453707 4.977948775384286 -8.334991766025682 0 0 0
995 1 5.877845861258201 7.928487810957558 -10.2815728206901 0 0 0
1008 1 8.32398994986385 7.8647069789180595 -8.657435223046676 0 0 0
1069 1 3.406709407014798 7.890672957857712 -11.460827564771533 0 0 0
1005 1 11.61601306175261 3.0771570993755386 -11.230530266654585 0 0 0
971 1 8.9288036761325 3.0345899078170095 -12.602917253342431 0 0 0
955 1 13.558300273961489 7.389776802551447 -12.435389874212657 0 0 0
948 1 13.442109189078696 4.521491864970757 -12.051180909976221 0 0 0
972 1 9.305969338117489 5.947221976444231 -12.67431873468349 0 0 0
941 1 11.656836810557053 6.129934433867943 -11.559587935985071 0 0 0
1006 1 11.108627104161524 4.28598285086291 -13.213786025234104 0 0 0
949 1 9.720623945161616 4.71442349236793 -10.838006012617626 0 0 0
1015 1 12.222557281258837 4.80139536923763 -9.666388737855737 0 0 0
1017 1 10.204712991243547 6.210519613483674 -9.179871832036708 0 0 0
956 1 12.40522662866313 7.637401559011524 -9.913148469370611 0 0 0
1105 1 10.19856457290885 3.4025306260822017 -8.934288527412706 0 0 0
942 1 9.886200228024311 7.6339761042469565 -11.136630761236278 0 0 0
1321 1 -11.278102550648178 10.265149956771223 -11.474636908463106 0 0 0
1518 1 -13.262761072491898 11.740470823249305 -10.760555172905974 0 0 0
1343 1 -9.349444392921072 11.54624377035235 -12.089237556155268 0 0 0
1138 1 -9.47348377130625 8.654024791656022 -11.938299879491813 0 0 0
1301 1 -13.239090654722188 8.979900223429391 -10.853971112456659 0 0 0
1128 1 -11.935105759742484 8.536520288336158 -13.11666401423252 0 0 0
1342 1 -8.762208341757361 10.244290683892205 -10.013223359778948 0 0 0
1537 1 -10.862749983542734 8.94761716312299 -9.42394157376388 0 0 0
1539 1 -10.507369579819754 11.781388937444104 -9.512549474557837 0 0 0
1517 1 -12.655230341615795 10.39193683370799 -8.929166494518874 0 0 0
1344 1 -8.681156081149712 13.06929415567595 -10.365766571854145 0 0 0
1323 1 -11.18327325598105 12.951696497768792 -11.69262510719981 0 0 0
1519 1 -12.487326224814504 13.193780243986593 -9.084494610680672 0 0 0
1322 1 -11.904070123479071 11.504174870287342 -13.40574088663001 0 0 0
1303 1 -13.65336629557021 13.100381743087562 -12.971049487373659 0 0 0
1155 1 -6.96103653042095 8.621849142438569 -10.54302566810567 0 0 0
1156 1 -7.408912492505364 9.957881950246383 -12.477386250203212 0 0 0
1175 1 -4.962214685652876 9.91617102152526 -11.346663258276239 0 0 0
1176 1 -4.380602264780565 11.448970307751432 -9.448502536093411 0 0 0
1362 1 -4.333513575993411 8.544482241524944 -9.225810610582547 0 0 0
1364 1 -6.2945398850204155 10.19479197103149 -8.795233450399778 0 0 0
1157 1 -6.88821500208543 11.6068343220344 -10.802675331742181 0 0 0
1022 1 -3.025129097957052 8.351233297274133 -11.730478154520661 0 0 0
1154 1 -5.627479677245297 8.424151786109006 -13.102560993818171 0 0 0
1034 1 -3.008888660638581 11.304624953963968 -12.026488897434309 0 0 0
1177 1 -4.813471164874947 12.852257813624773 -11.505365944355548 0 0 0
929 1 -7.3736280377244565 12.892651189521787 -12.84628369532017 0 -1 1
1024 1 -5.564862224134645 11.285042459391184 -13.25511180704104 0 0 0
1305 1 -6.243552110840874 13.164286241921092 -9.128959775867411 0 -1 0
1560 1 -8.116611615515255 11.7907321491888 -8.302049817170833 0 0 0
174 1 -3.7102982896391143 9.751816046382727 13.757836721007028 0 0 0
1213 1 2.111069976466016 8.22672225574176 -9.093387110980945 0 0 0
1195 1 -2.261864528571923 9.841395870267634 -9.935115601895859 0 0 0
1214 1 -0.48349079218214897 8.2378247802662 -10.464001290089513 0 0 0
1051 1 -1.0427520172965554 9.769716040838906 -12.620343336235852 0 0 0
1072 1 1.1122092604296192 10.830629983741145 -13.271763494596714 0 0 0
1216 1 0.14636999973219034 9.832227548413288 -8.681978752165762 0 0 0
1071 1 1.3948123308677367 9.629637894883912 -11.139386806850858 0 0 0
977 1 -0.4431544897279647 11.221058745060391 -10.67850670308337 0 0 0
1237 1 2.046921299409661 11.21238928661394 -9.385111179734398 0 0 0
80 1 -0.8566820778207411 12.579535364484657 -12.793913588964118 0 0 1
1052 1 0.2833539256097808 12.714124885073668 -8.899282921954148 0 0 0
1197 1 -2.3174337730040104 12.768881512685036 -10.221048104548032 0 0 0
1093 1 1.4986006344824663 12.524471534568095 -11.412600210765675 0 0 0
1050 1 2.923843676991673 9.228357872273298 -13.421509138691206 0 0 0
976 1 5.435212261347466 12.198188693225978 -12.523383168034128 0 0 0
996 1 6.001593097426749 10.768621583283215 -10.418285652864881 0 0 0
1091 1 3.378107583998318 10.987204588224605 -11.73641477126624 0 0 0
974 1 5.399062699191507 9.376738677517467 -12.447300112938551 0 0 0
943 1 7.974732801040503 9.323108889529381 -10.867470446955563 0 0 0
1112 1 6.568040120752883 12.445374225814374 -8.722212264484497 0 0 0
1010 1 7.9417862711474605 12.195041977673343 -11.146484547202014 0 0 0
944 1 7.281131191010253 10.817504570845765 -13.244936594579688 0 0 0
1235 1 4.0200100283131945 9.58971914396633 -9.796810487944834 0 0 0
997 1 4.0184484011631945 12.360970722654839 -10.066667997361062 0 0 0
994 1 6.542621833145201 9.490947459283342 -8.260439635445328 0 0 0
1009 1 8.470741946842843 10.742608934305961 -8.991562328081557 0 0 0
1302 1 13.568913403034376 10.267993929337786 -12.689617466859463 -1 0 0
950 1 11.736976115469083 9.039113412725984 -11.970724819753446 0 0 0
951 1 10.288373288372487 9.255893182145146 -9.590275934503765 0 0 0
953 1 9.713677042876064 10.68293568996443 -11.655929435695628 0 0 0
958 1 12.310599228200292 10.506029034447591 -10.193817429654503 0 0 0
952 1 11.802845310528944 11.972084666137972 -12.449958295649118 0 0 0
1019 1 10.44723389849845 12.184552901730873 -9.749384268076906 0 0 0
1679 1 12.948992425624638 11.95577389545351 -8.362743714387786 -1 0 0
1520 1 12.493750305046266 13.35503902059944 -10.527816651620682 -1 0 0
954 1 9.969479019173786 13.53524374415281 -11.857230580777188 0 0 0
139 1 9.157115549378588 9.018740668923646 -13.442337358115017 0 0 1
47 1 9.185686265998267 12.14999595553171 -13.672710735430742 0 0 1
1500 1 12.86791600543236 9.144160674295685 -8.09435518656259 -1 0 0
1011 1 8.499479314537854 13.749141048322544 -9.280487163529266 0 0 0
1139 1 -9.180999022186999 14.211797580743143 -12.268153180955323 0 0 0
1484 1 -8.058410190037804 -14.212197966006316 -8.466795425201433 0 0 0
1502 1 -6.59903824696915 -14.433785115976479 -11.054117034474691 0 0 0
1327 1 -4.1561660312387545 14.310371203785175 -9.722124875061645 0 -1 0
1304 1 -2.836164650641031 14.044146045406686 -12.26911092410716 0 -1 0
1290 1 -5.3522898141108435 14.07533657893705 -13.642677428894245 0 -1 0
1218 1 -1.6378090659131583 14.28261131538474 -8.451690786359809 0 0 0
1140 1 -0.23033124255488246 14.012821240444326 -10.906245378281064 0 -1 0
1158 1 2.1519434498689964 14.005455533176894 -9.596434770084189 0 -1 0
1053 1 1.2118065275918788 13.978204014092748 -13.412058964666238 0 0 0
1012 1 7.3847056445298485 13.496014157197605 -13.225477517407434 0 0 0
1035 1 6.095620169733369 13.863454539498234 -10.679459970270035 0 -1 0
1025 1 3.668964803386107 13.923000735603365 -12.133707636044528 0 -1 0
1651 1 -9.936779401025355 -12.803921702145127 -8.065649592841037 0 0 0
1652 1 -11.83997229866807 -11.222428318461436 -7.5985600268138604 0 0 0
1769 1 -12.420531824602987 -12.349541022394286 -2.864483144439955 0 0 0
1770 1 -11.214431611827855 -12.43815015711595 -5.479804300926924 0 0 0
1779 1 -10.52751702447698 -11.056074259362653 -3.629197408275253 0 0 0
1777 1 -10.619894981345066 -13.839186367289878 -3.5556198106847656 0 0 0
1843 1 -13.061804870063934 -10.948570888611982 -5.092255927908365 0 0 0
1649 1 -9.362134016231446 -14.101886462948531 -5.907326367183594 0 0 0
1665 1 -9.206269913133372 -11.214215564957607 -6.253015268663189 0 0 0
1664 1 -8.613391638219063 -12.530903079788972 -4.2383848615951365 0 0 0
1842 1 -13.237797920132499 -13.809609913256109 -4.9021788296449635 0 0 0
1666 1 -8.44293421205634 -9.807487339323451 -4.539773639700641 0 0 0
1653 1 -10.956446648175248 -9.58817554985204 -5.764087407280556 0 0 0
1771 1 -12.391096921341873 -9.457584189304708 -3.294080912184384 0 0 0
1768 1 -11.935022309556706 -14.002756352055865 -7.367393751848423 0 0 0
1646 1 -13.564972286605611 -9.54601346503 -7.036551514287973 0 0 0
1095 1 -13.742163118153096 -12.50833996034445 -6.933473782711991 1 0 0
1521 1 -3.5033056038768198 -13.05562132479407 -7.967082868900663 0 0 0
1523 1 -5.31164235834831 -11.522241824494559 -7.431727310058691 0 0 0
1794 1 -5.9994451417005425 -12.652293609218727 -2.8490710035433846 0 0 0
1503 1 -7.103962996659881 -9.867447541035634 -7.010071505388025 0 0 0
1663 1 -7.2925696259091355 -12.72797652897588 -6.687206721653688 0 0 0
1662 1 -6.7624391088245845 -14.124076243829006 -4.839868216780239 0 0 0
1682 1 -6.694737154075458 -11.264020436910986 -4.923352960296176 0 0 0
1683 1 -4.671942634505442 -9.927750329333515 -5.642249644181142 0 0 0
1544 1 -4.81676238473149 -12.932038107693442 -5.494168905530902 0 0 0
1792 1 -4.130664132280794 -11.394929792550812 -3.6229375785003484 0 0 0
1705 1 -5.934194631986557 -9.800884089721933 -3.2095976403867574 0 0 0
1681 1 -4.3295008145247085 -14.288583300637962 -3.538780950939925 0 0 0
1701 1 -2.836266417918523 -11.461828341848946 -6.180566005739446 0 0 0
1501 1 -5.520153669623523 -14.356426957445999 -7.214794608912121 0 0 0
1347 1 1.0173362754874997 -11.756006474762103 -7.1682544744664884 0 0 0
1543 1 -0.8358537606048042 -10.178459632961811 -6.895503892708157 0 0 0
1565 1 1.6339850076476896 -10.27951168939273 -5.440600879894854 0 0 0
1563 1 1.5390300946933237 -13.101465755075466 -5.175379285921492 0 0 0
1564 1 2.280080243167994 -11.561220225041426 -3.3680039846443073 0 0 0
1702 1 -0.2866149393682367 -11.489697468558704 -4.83373821500072 0 0 0
1345 1 -0.9649015468734561 -13.091074601802037 -6.574552948942806 0 0 0
1704 1 -2.1256724309083683 -9.902364973795072 -4.346595440379563 0 0 0
1811 1 -2.1681958306162947 -12.816229414293957 -3.9575870538828415 0 0 0
1839 1 0.38865877991567643 -10.039233640896205 -3.1295550771734266 0 0 0
1349 1 1.1205625528129666 -8.838108040221597 -7.583713356056712 0 0 0
1743 1 0.22396704148299307 -12.82907742286841 -2.710170042080991 0 0 0
1367 1 2.9185260735087297 -13.369634241322577 -7.747860446446658 0 0 0
1369 1 2.932215273064436 -10.473117774553657 -8.005285230724464 0 0 0