LAMMPS data file via write_data, version 23 Jun 2022, timestep = 0

1884 atoms
3 atom types

-13.918609146802762 13.918609146802762 xlo xhi
-14.385710369563407 14.385710369563407 ylo yhi
-13.76326796888657 13.76326796888657 zlo zhi

Masses

1 55.847
2 1.008
3 1.008

Atoms # atomic

51 1 -11.824444831142765 -13.604232684122788 -12.188584656563014 0 0 0
126 1 -1.1333185477441479 -3.216314814921935 -13.641991309080922 0 0 0
52 1 -9.598657042429927 -13.314407984837908 -11.262203928649434 0 0 0
63 1 -8.565412908578828 -11.7129900964505 -12.769209830754878 0 0 0
54 1 -7.436130848362366 -13.921844922753063 -12.716137726317955 0 0 0
65 1 -7.319684541996915 -13.005450660859173 -10.406617965072241 0 0 0
269 1 -5.799097239702647 -7.770014952350733 -13.604565942309726 0 0 1
69 1 -5.073326744370075 -13.677768037414603 -11.925351917169712 0 0 0
316 1 -3.859483854114595 -12.222306496198629 -13.44623419191163 0 0 1
1115 1 -0.42592700490041047 -12.98939666356271 -10.519142169026189 0 0 0
70 1 -2.638154617742037 -13.329953056023772 -11.306854801383462 0 0 0
90 1 -1.587460392094819 -11.826109963064162 -12.88555800963929 0 0 0
1112 1 -0.2965845868183532 -14.023080907836217 -12.799936671011482 0 0 0
262 1 -4.8320822369889225 -10.082970992509367 -13.64439851138738 0 0 1
147 1 -13.051456705678893 -11.446547027676658 -12.135276026259525 0 0 0
160 1 -11.60262610066251 -8.698018454535323 -11.291882566398478 0 0 0
56 1 -10.729597135551966 -11.042603298128501 -11.388031292656324 0 0 0
1113 1 -0.25432926001184164 -12.085607836198324 -8.176435287605432 0 0 0
55 1 -9.592479969253876 -9.420409506416973 -12.831604745993323 0 0 0
57 1 -8.273048398806257 -10.745449586345723 -10.430260216962582 0 0 0
80 1 -7.067247104026806 -9.135745220411092 -11.931919743349074 0 0 0
268 1 -6.911972911133712 -5.286814907528889 -13.58074629796068 0 0 1
64 1 -6.130998957403713 -11.476381936636027 -12.021389831022075 0 0 0
81 1 -4.720608335422325 -8.90565382424236 -11.28368277187495 0 0 0
87 1 -3.708956563099939 -11.139613536563134 -11.256023333722219 0 0 0
86 1 -2.4634715262304034 -9.517925345847807 -12.921182799586113 0 0 0
88 1 -1.3565591368772179 -10.823033135446197 -10.652382999312595 0 0 0
108 1 -2.3239089432987665 -8.510512596992292 -10.485683027017684 0 0 0
439 1 -9.067979296588796 -0.9223677721619339 -13.576787252315544 0 0 1
153 1 -12.685035277643246 -6.622012605623371 -11.401420386086453 0 0 0
159 1 -10.364263539213358 -7.232241949390859 -12.95437758248997 0 0 0
73 1 -9.181073637073647 -8.534749635042509 -10.66175103002529 0 0 0
91 1 -10.301183372963951 -6.258623444358664 -10.624977412502808 0 0 0
72 1 -8.110931609501069 -6.969958667826374 -12.084352959725525 0 0 0
100 1 -5.8840129282095095 -6.679334611838508 -11.344940869302556 0 0 0
106 1 -3.5511541508353304 -7.366683165487761 -12.821702733882256 0 0 0
101 1 -3.478955587677895 -6.313148980770968 -10.613740368869712 0 0 0
320 1 -11.834187527134954 -9.843702733077635 -13.707184844221672 0 0 1
107 1 -1.2773722028684595 -6.991827136782532 -12.079070459660095 0 0 0
178 1 -11.589124316049913 -5.012448630565384 -12.94286136749004 0 0 0
202 1 -11.332847079032293 -4.180256635338576 -10.74471853727544 0 0 0
1121 1 -0.03994230743689897 -8.225981033084548 -9.759973594217664 0 0 0
418 1 -8.014015429181272 -3.2305394445035063 -13.675897518956956 0 0 1
438 1 -9.155170820782374 -4.664454053708141 -12.100236294816284 0 0 1
306 1 -2.741688049260345 -14.26128711434542 -13.612163062898034 0 0 1
92 1 -6.752622162235701 -4.4370147848230115 -11.292017753002982 0 0 0
99 1 -4.63050065037516 -5.105785708936233 -12.848444167247091 0 0 0
121 1 -4.454644027957826 -4.120187535197973 -10.632406850496599 0 0 0
119 1 -5.64796768829552 -2.8360242961480147 -12.925230351794285 0 0 0
1124 1 -0.2282595605979143 -9.323692436076549 -12.135107116031676 0 0 0
127 1 -2.3166844444398365 -4.7653286222269156 -12.242049098881383 0 0 0
200 1 -12.707000124608387 -2.7897246805526947 -12.829430422820145 0 0 0
191 1 -12.604012703935037 -1.8917080365560093 -10.603029716244938 0 0 0
644 1 -11.34823209290375 -0.3081678865814812 -12.19877094794542 0 0 0
638 1 -13.776007946468464 -0.6022933349006436 -12.958495434285282 0 0 0
201 1 -10.383577030272944 -2.4784634291934573 -12.19101748722221 0 0 0
110 1 -7.857626187275327 -2.312368952424505 -11.307622579344432 0 0 0
640 1 -12.303571831012817 -0.044798925037170534 -5.9194372584467905 0 0 0
722 1 -6.848585247648851 -0.6870396249595991 -12.764383228353816 0 0 1
135 1 -4.515594229093566 -0.41418912151898013 -11.992092928491122 0 0 0
112 1 -5.609875905107229 -1.888736219352305 -10.569842634819633 0 0 0
169 1 -13.852275585028181 -4.387517334310001 -11.426355458362195 0 0 0
120 1 -3.3995770750110097 -2.5151350352987567 -12.033220202558221 0 0 0
141 1 -1.0152157440837044 -2.2824505435054405 -11.401303279424242 0 0 0
140 1 -2.318953614902661 -1.0814678416547707 -13.648227384289832 0 0 0
151 1 -10.541139506802358 -14.037394181925928 -7.520198542976322 0 0 0
149 1 -11.900892102495321 -12.716771673408928 -9.853145052843058 0 0 0
162 1 -11.68928515781225 -11.85422692830841 -7.605193532655893 0 0 0
58 1 -9.516121488699337 -12.419772646872184 -9.007779837394297 0 0 0
59 1 -7.1233911072327025 -12.238520956253309 -8.177025850873594 0 0 0
366 1 -10.772085318711838 -12.118242664191172 -13.577383183408575 0 0 1
66 1 -4.855323979896694 -12.722948101197879 -9.665892924807967 0 0 0
84 1 -4.684829834182882 -11.680200340070035 -7.248878203307632 0 0 0
68 1 -3.6692177591600164 -14.066088757735253 -7.484423208040003 0 0 0
365 1 -9.669260643532214 -14.311905155472369 -13.614952926382207 0 0 1
89 1 -2.5236527519041037 -12.319257603720384 -8.97811756010721 0 0 0
144 1 -12.84238534181313 -10.409908380655626 -9.924285596595693 0 0 0
180 1 -12.740419649709597 -9.566432368337505 -7.519246525925847 0 0 0
161 1 -10.443062004028647 -10.197076059184415 -9.049228965982074 0 0 0
76 1 -8.092866858287334 -9.970802389816528 -8.193534085852187 0 0 0
82 1 -5.9449683473862365 -10.567530214910633 -9.757536510725096 0 0 0
77 1 -5.730820714835456 -9.527230541981426 -7.43174374463338 0 0 0
83 1 -3.5897947528901177 -10.18048955956912 -8.94943946577646 0 0 0
109 1 -1.1727077264174977 -9.835583177420023 -8.402050674649391 0 0 0
674 1 -5.338739072719864 -0.11309045658365235 -5.969178976535219 0 0 0
179 1 -11.667641099224172 -7.945073578651181 -9.009322729456034 0 0 0
171 1 -13.618530449925604 -7.287204571910444 -7.637527806108068 0 0 0
181 1 -9.16759099790826 -7.787719540334005 -8.330118589718701 0 0 0
93 1 -7.958728711895225 -6.081325779627592 -9.700788848952175 0 0 0
74 1 -6.956310970445658 -8.342857153368076 -9.639919515024186 0 0 0
95 1 -6.833658834820696 -7.362604438871072 -7.441864703546437 0 0 0
102 1 -4.604586797527597 -7.9454806106783105 -8.97668140365153 0 0 0
94 1 -5.687385531927351 -5.769449602422725 -9.168700790893006 0 0 0
103 1 -2.26445595999499 -7.698673194347488 -8.266154929566813 0 0 0
128 1 -1.1170957653252138 -6.006933001988843 -9.790242305852498 0 0 0
170 1 -12.584944381463647 -5.613720402393172 -9.035551584580485 0 0 0
192 1 -13.577162880421918 -3.4065076651041757 -9.151754500128806 0 0 0
193 1 -11.265944680962678 -3.1757743939436605 -8.3577352528395 0 0 0
111 1 -9.0913865436858 -3.6466394093314562 -9.783970610314192 0 0 0
203 1 -10.127918383128987 -5.376323983677786 -8.460203933653714 0 0 0
205 1 -7.838041168783663 -5.104434982500411 -7.435196004833338 0 0 0
227 1 -8.84871397650802 -2.858678434793198 -7.639138822367838 0 0 0
113 1 -6.831359903651998 -3.6451688406990677 -9.028550368362922 0 0 0
114 1 -4.4098877628137565 -3.242313848997753 -8.259957492887311 0 0 0
123 1 -3.3694908294217907 -5.4134867951410275 -8.317494659657015 0 0 0
124 1 -0.9068804185613928 -5.145774872346076 -7.5933942595374875 0 0 0
122 1 -1.990115515933148 -3.7685816166073582 -9.754963228591528 0 0 0
138 1 -2.04820347742076 -2.967515259824488 -7.528264964530275 0 0 0
217 1 -12.453046012788192 -0.9426342218364177 -8.304139023110823 0 0 0
186 1 -13.455622042000144 -2.5438382437817957 -6.763688704889144 0 0 0
225 1 -10.241593229399191 -1.5778309564311925 -9.905662509232485 0 0 0
218 1 -10.052696353647477 -0.6001480461177433 -7.540913009278111 0 0 0
226 1 -7.879949536819623 -1.2994322348299612 -9.072226342988829 0 0 0
129 1 -5.396886949115585 -1.045573279625117 -8.283182832467475 0 0 0
136 1 -3.1170424284155107 -1.5218441228030226 -9.941445165199188 0 0 0
130 1 -3.0351212325641317 -0.7155845093875097 -7.6589452717995705 0 0 0
137 1 -0.8176612071585616 -1.368869087072202 -9.076328530221003 0 0 0
145 1 -12.786416185810657 -13.49476161642937 -6.031076346053783 0 0 0
156 1 -12.551917429062634 -12.525766229175158 -3.7156169739389284 0 0 0
164 1 -10.313396873334149 -13.169991001621725 -5.163566908490081 0 0 0
61 1 -8.12978955601962 -13.651723501366192 -6.664093361556426 0 0 0
165 1 -7.928608560495815 -12.847681123206229 -4.339787140595153 0 0 0
62 1 -5.8936943958092165 -13.461877104769194 -5.953294380585599 0 0 0
1 1 -5.6427037322193065 -12.59033016202106 -3.6588365992344993 0 0 0
5 1 -3.5531494895528155 -13.078874805157435 -5.2217900289903945 0 0 0
8 1 -1.3272154090170503 -13.715052385148828 -6.5940822668830235 0 0 0
6 1 -1.1595689984772335 -12.877910625780517 -4.307061452724781 0 0 0
85 1 -2.376353915865142 -11.462541644495847 -6.667834243603158 0 0 0
182 1 -10.37558295672318 -9.194101419532327 -6.7391805339126805 0 0 0
154 1 -13.744986116812072 -11.148394203069227 -6.189737326235053 0 0 0
155 1 -11.372048732849843 -10.967446254333977 -5.179413884789813 0 0 0
173 1 -13.637414750436081 -10.086137273446685 -3.800401671956159 0 0 0
163 1 -9.365942103952523 -11.541792899129703 -6.702510654591481 0 0 0
184 1 -9.00512612921919 -10.59245591678982 -4.51997787888971 0 0 0
183 1 -7.925072546749904 -8.799050016681196 -5.905059915363842 0 0 0
78 1 -6.987202450611066 -11.207601488766183 -6.031477320061882 0 0 0
185 1 -6.68950599105868 -10.367892081794288 -3.6462289916989103 0 0 0
79 1 -4.641116844032993 -10.813517857102369 -5.050872274906514 0 0 0
97 1 -5.635045129049837 -8.61754082899041 -5.16902402442545 0 0 0
104 1 -3.4347406826707214 -9.197791577261215 -6.5840576250258644 0 0 0
16 1 -2.152822927588671 -10.545285723361218 -4.494425643557712 0 0 0
105 1 -1.0266216063383382 -9.04275732103596 -6.016596033791797 0 0 0
204 1 -11.288822822815353 -6.95533773535516 -6.818947874168062 0 0 0
172 1 -12.383877514010823 -8.716036642378008 -5.32303177818163 0 0 0
196 1 -11.191284599220944 -6.095355623764174 -4.442753418863429 0 0 0
166 1 -13.353830212005 -6.449434811281267 -5.345398976612328 0 0 0
174 1 -10.099577783853466 -8.399752227651856 -4.34566384171384 0 0 0
206 1 -9.10011452432195 -6.730267613961817 -6.040415298171845 0 0 0
208 1 -7.866357042458159 -8.131534746291804 -3.594964687519317 0 0 0
197 1 -8.793903417305236 -5.875569091431101 -3.773912114053232 0 0 0
96 1 -4.433504303007528 -6.99792077909181 -6.703599328004543 0 0 0
207 1 -6.625627064940353 -6.4509467801517655 -5.095935974536031 0 0 0
117 1 -4.234961185084019 -6.247923216776787 -4.351843185460568 0 0 0
98 1 -3.256233592231787 -8.417220524744732 -4.457581883267363 0 0 0
24 1 -0.993697005888782 -7.940003372746202 -3.7857351073404786 0 0 0
125 1 -2.047799045806272 -6.814715410637046 -6.012142794531603 0 0 0
118 1 -1.9155228107401197 -5.7565981133664526 -3.6345623913154164 0 0 0
194 1 -12.365987707912574 -4.695548913780263 -6.8188489858203765 0 0 0
187 1 -12.328519691426783 -3.8777530488531085 -4.564424337718977 0 0 0
195 1 -10.03549550978079 -4.485893536059503 -5.971799918816692 0 0 0
229 1 -7.774912522529066 -4.297650701500496 -5.265492742916843 0 0 0
221 1 -9.936477928703 -3.5691168576040866 -3.7176394943514595 0 0 0
115 1 -5.626267953585293 -4.866880654725282 -6.796548051110844 0 0 0
230 1 -5.418218741940304 -3.9504649769266784 -4.477174206241848 0 0 0
116 1 -3.0975167870730314 -4.5418770609023635 -6.101523964984053 0 0 0
139 1 -0.7516640173933506 -4.120944883139561 -5.2606065427102155 0 0 0
133 1 -3.140227019447355 -3.6626161977187177 -3.7476364619192726 0 0 0
150 1 -13.038934403315464 -14.32897058526108 -8.17441014075434 0 0 0
212 1 -13.537158570361852 -1.7372168680563735 -4.478974481646155 0 0 0
219 1 -11.12898219873634 -2.269327470730939 -6.038571950366544 0 0 0
213 1 -11.142770008259333 -1.3674787756185705 -3.6217703729094204 0 0 0
45 1 -7.679218489764707 -0.4822808985770255 -6.794492045342299 0 0 0
220 1 -8.79626663798852 -2.0455509396041567 -5.277463935639831 0 0 0
1046 1 -13.904078448928374 -8.259563802710574 -9.982721931217093 1 0 0
228 1 -6.561333409746864 -2.6300543295463203 -6.776346731917529 0 0 0
44 1 -6.498909993988336 -1.7623499890153411 -4.450496692634838 0 0 0
131 1 -4.296352550480371 -2.4198983414636928 -6.00648523887806 0 0 0
30 1 -4.178483244310783 -1.445588476675045 -3.6222473229814653 0 0 0
143 1 -0.8323012474141311 -0.447963280840602 -6.797872222985077 0 0 0
132 1 -1.911540442218925 -2.0465663970876538 -5.120368437244508 0 0 0
33 1 -13.837807504793323 -14.06695014470091 -2.1652312484673377 0 0 0
32 1 -11.496582772951975 -13.79940136071096 -1.2913791611036203 0 0 0
157 1 -10.205022782190742 -12.16334473097389 -2.777905741051587 0 0 0
34 1 -9.096297705205458 -13.52374824439126 -0.7301667104676017 0 0 0
40 1 -7.834270551620885 -11.839018209627637 -2.044013637941303 0 0 0
36 1 -6.921709953953725 -13.952154749632685 -2.1882700833327284 0 0 0
629 1 -4.628971180347559 -13.86929388924365 -1.3647780015453108 0 1 0
41 1 -5.59685591327727 -11.548306568721182 -1.269289713825394 0 0 0
2 1 -3.4065381363550333 -12.187976023514977 -2.8055357860650822 0 0 0
368 1 -2.2493091069683757 -13.394338743892726 -0.6332993276497252 0 0 0
18 1 -1.010484139923788 -11.915251849870891 -2.226457152644926 0 0 0
38 1 -12.565114579009526 -11.674337561903364 -1.3734746818883483 0 0 0
168 1 -13.496379319154626 -9.421936565831071 -1.3885870915109635 0 0 0
190 1 -11.18402908956817 -9.014491453812543 -0.6331268597189901 0 0 0
175 1 -11.277082970542327 -10.030340822599303 -2.824332341223677 0 0 0
39 1 -10.031875938717205 -11.282147505218756 -0.48702388313789946 0 0 0
176 1 -8.937482285775394 -9.518172097105973 -2.0376896054074702 0 0 0
46 1 -6.656488624376919 -9.400195365500768 -1.3659263533699857 0 0 0
9 1 -4.316972982859474 -9.934045984874636 -2.8009652778838046 0 0 0
47 1 -4.3689518007007795 -9.037939000847103 -0.5883895378895723 0 0 0
11 1 -3.3389885676355107 -11.18199284648718 -0.5109500129040825 0 0 0
10 1 -2.0576968554812467 -9.67977839243349 -2.0428376747851917 0 0 0
189 1 -12.191943447086166 -6.718822547477449 -0.6681773522376471 0 0 0
167 1 -12.245961258586465 -7.810505160148197 -3.0831088947278715 0 0 0
198 1 -9.976107709265747 -7.38277425551349 -2.233896446077086 0 0 0
199 1 -7.72812776562715 -7.219468031742265 -1.3266014774520034 0 0 0
209 1 -5.403094529680368 -7.728089202148935 -2.824943510086829 0 0 0
48 1 -5.458576444643278 -6.796213916436185 -0.6549746475839395 0 0 0
22 1 -0.8090626779105463 -7.073031300415482 -1.4584238086387522 0 0 0
21 1 -3.138056289074454 -7.423861832308646 -2.1135172766830532 0 0 0
953 1 -13.392474821940521 -5.441535601911982 -3.0012449248950954 1 0 0
1359 1 -13.398068056804979 -4.491025401892221 -0.6217510756814502 1 0 0
188 1 -11.107002238197035 -5.058860495772988 -2.1958807411300185 0 0 0
214 1 -12.20453925741293 -2.9392786304764247 -2.3298228768054514 0 0 0
223 1 -8.729966917743361 -4.921404641587241 -1.3816006870957853 0 0 0
222 1 -7.542841146055455 -3.3422102250476886 -2.8898498081148833 0 0 0
231 1 -6.481929115514549 -5.54786010836777 -2.8703087578175843 0 0 0
224 1 -6.486341413245159 -4.660841715146706 -0.6116104986069093 0 0 0
232 1 -4.133649918638934 -5.237015850245903 -2.060951690645764 0 0 0
29 1 -5.284256952502197 -3.1066847735804437 -2.271957164707066 0 0 0
134 1 -0.747553224069673 -3.276314922343712 -2.945971373414304 0 0 0
26 1 -1.7606920121855953 -4.861349117024407 -1.3499225062335398 0 0 0
233 1 -10.944447618256175 -0.4693541334920255 -1.3038666050720256 0 0 0
210 1 -13.288106442444107 -0.8319176279368534 -2.231164528074908 0 0 0
234 1 -8.794618927393934 -1.2703776504044768 -3.0571023136867286 0 0 0
656 1 -8.501342253088502 -0.3495622204136808 -0.8195481629297863 0 0 0
75 1 -7.525418788772607 -2.470573545963095 -0.6934138399428136 0 0 0
215 1 -9.806274968900652 -2.762172873864902 -1.480585263238499 0 0 0
235 1 -6.4256716823315045 -0.8855722128227335 -2.2379300352168645 0 0 0
14 1 -3.900325102917771 -0.4889382754558458 -1.3675749734234106 0 0 0
13 1 -1.6694545432752914 -0.31385436106098474 -0.5582882518669976 0 0 0
142 1 -1.8073440005142132 -1.172879521322571 -2.8025926343744008 0 0 0
31 1 -0.5322757126030293 -2.3494443676758916 -0.6252723153134419 0 0 0
15 1 -2.9164630889750214 -2.827199574606551 -1.4545385443326815 0 0 0
1257 1 -12.794555501941579 -7.657933363815483 -13.645432287410332 1 0 1
1140 1 -0.08105561507058034 -5.494472197252737 -13.668964757183902 0 0 0
401 1 -11.207564943318767 -12.822770749405539 0.9299245840003607 0 0 0
405 1 -11.2615991087271 -11.985904312363626 3.3316061570291957 0 0 0
1384 1 -13.48916841365778 -12.436717441322628 2.4006723526891918 1 0 0
1288 1 -0.0802193506101414 -2.63351008917304 10.046631438402535 0 0 0
402 1 -9.110648110536786 -12.596350250522857 1.7840414987669533 0 0 0
407 1 -10.188155610779688 -14.19173634364414 3.340460328192467 0 0 0
372 1 -6.609862198945611 -12.4103329862452 2.350820366006243 0 0 0
399 1 -4.501182412274499 -12.967487650493267 0.880838140594145 0 0 0
373 1 -4.141847602721597 -12.03605614817727 3.1289512766973964 0 0 0
398 1 -6.965977282076324 -13.251123960344659 0.09431256221092355 0 0 0
367 1 -2.2384370964389433 -12.785384943318581 1.7014042108737648 0 0 0
841 1 -13.377559312521202 -14.319398674160423 8.566129849280944 0 1 0
460 1 -9.825850978047852 -6.504486688442664 0.11801761614952788 0 0 0
1410 1 -12.39834776622547 -10.737736581954467 0.9496318865944815 1 0 0
383 1 -12.21649015923167 -9.642956424705844 3.1990373876501756 0 0 0
389 1 -6.331890411758317 -14.236364607334 8.62250989116971 0 0 0
370 1 -9.984294573718076 -10.274198989805754 1.8122653639798685 0 0 0
378 1 -7.502397051368446 -10.058815968553525 2.495262342896826 0 0 0
42 1 -7.7566435517666115 -11.003474545012219 0.25628993044468373 0 0 0
329 1 -5.30345124324832 -9.909027507048712 3.14550735645442 0 0 0
371 1 -5.42524266718676 -10.755877022500478 0.9146679964833488 0 0 0
325 1 -3.029075136450601 -10.448020873277864 1.655354375147164 0 0 0
278 1 -0.8773024921181083 -10.24115318632156 2.4445297243433473 0 0 0
757 1 -3.210127355048913 -14.351018072698261 3.2692543558490037 0 1 0
1238 1 -0.9590931054505152 -11.119821406271182 0.12998619352275576 0 0 0
461 1 -13.45526327006098 -8.4105117825118 0.8587203919536179 0 0 0
442 1 -12.169499584683235 -5.917552630937639 1.6925456303168325 0 0 0
400 1 -11.087690681138037 -8.162843245650485 1.5810319268457853 0 0 0
462 1 -13.403906186448232 -7.456736909945852 3.1563055112532084 0 0 0
376 1 -8.734822851344678 -7.874229193678088 2.5250701636279445 0 0 0
326 1 -7.438946051282648 -6.231259189186492 0.9516943498815742 0 0 0
727 1 -5.800028157443423 -0.05809043565991523 10.774979539639173 0 0 0
327 1 -6.373855215150285 -8.426739346121568 0.8668526799054348 0 0 0
323 1 -4.080279424864926 -8.190451820714275 1.7476395403153298 0 0 0
464 1 -5.238455102718055 -5.993091746255624 1.757795459158615 0 0 0
336 1 -6.3984132245653695 -7.606488192397598 3.2099935777491098 0 0 0
322 1 -0.5921763893006311 -6.199974099532369 0.7153381626686048 0 0 0
277 1 -1.732464017532843 -8.011253627498238 2.39936775323012 0 0 0
432 1 -4.742225894641056 -2.2547541427674798 10.869211674024285 0 0 0
1360 1 -13.23643950624108 -3.6746114035922446 1.6344632271583333 1 0 0
443 1 -10.965451287079427 -3.452323924739389 2.471765174218998 0 0 0
216 1 -10.965227489288 -4.253971676859832 0.19967917671616497 0 0 0
444 1 -9.764931082480228 -5.56881359625028 2.495448549101738 0 0 0
440 1 -8.692188568959242 -4.004181597052366 0.863632276369696 0 0 0
455 1 -8.430085190215767 -3.173920061595373 3.095382839308172 0 0 0
334 1 -7.426552350435163 -5.3372120123711255 3.2006576017046555 0 0 0
50 1 -4.18834614643052 -4.43778229566068 0.23381195002400013 0 0 0
457 1 -6.320839922593079 -3.8241860546154385 1.6769400668230308 0 0 0
279 1 -3.9476045628647753 -3.5143800533767298 2.5078249298590265 0 0 0
275 1 -2.866706796465783 -5.674570771751995 2.467078341410236 0 0 0
276 1 -1.716181523438303 -4.0591352595533365 0.9856678353464812 0 0 0
239 1 -0.5423421629692928 -5.400992794612121 3.14375932744219 0 0 0
237 1 -1.653583699282052 -3.175174661358996 3.335388968200917 0 0 0
23 1 -1.9912610328620133 -8.788582589168886 0.06410542001875896 0 0 0
445 1 -11.935555480573113 -1.3694392159704947 2.470502832030686 0 0 0
459 1 -9.742550964098658 -1.7794190841557 0.8638660753645659 0 0 0
458 1 -7.370159341098081 -1.5198643657847235 1.5443500082829438 0 0 0
945 1 -9.682519661563997 -0.8841855993557193 3.124012502888551 0 0 0
60 1 -5.17832352909832 -2.13143892711423 0.16524187028227644 0 0 0
471 1 -5.060296271238169 -1.2496974385065673 2.3943105272913066 0 0 0
274 1 -2.737189409811224 -1.9275206182513536 0.9759726220954121 0 0 0
413 1 -0.40303185835402644 -1.4832941732160734 1.6735502131676423 0 0 0
236 1 -2.579445872567888 -0.9101913612634895 3.2976014966265375 0 0 0
410 1 -12.468537227549604 -13.62246554054974 4.657633162660716 0 0 0
379 1 -7.751872743114978 -13.779958865000415 3.994384261518615 0 0 0
386 1 -10.00926832431936 -13.154379890702202 5.390903611711618 0 0 0
387 1 -7.658473423630203 -13.03069179021071 6.1924781192368314 0 0 0
377 1 -8.809165177885081 -11.579447587088556 3.9249934056652585 0 0 0
374 1 -5.3266658353737935 -13.604708063871088 4.811532145977949 0 0 0
382 1 -3.001788164768401 -13.441195843834532 5.53256813480526 0 0 0
744 1 -0.6609641925109866 -13.191460491654716 6.390204310856184 0 1 0
375 1 -1.8728960536533794 -11.853771796089578 3.9709405899795946 0 0 0
741 1 -0.9233358598021137 -14.008015363359435 4.021125859415797 0 1 0
1404 1 -13.431787285145191 -11.281941675272753 4.737844670670903 1 0 0
344 1 -12.19932772642983 -8.706322099612388 5.557004049765101 0 0 0
384 1 -11.129618639971506 -11.052257455458726 5.497879528763892 0 0 0
335 1 -9.895172860121384 -9.403351447589356 4.091340056485574 0 0 0
385 1 -8.662615227115575 -10.701212959774661 6.301478144349701 0 0 0
337 1 -7.469445105438154 -9.068962135278237 4.711253170448401 0 0 0
345 1 -9.790220885096076 -8.55175410972548 6.281007998798927 0 0 0
380 1 -6.447977133478158 -11.428462688245947 4.742471092117601 0 0 0
331 1 -4.137652921826165 -11.125100522229465 5.518995566277287 0 0 0
338 1 -5.246522488166926 -8.842629291888196 5.568285521136957 0 0 0
330 1 -3.0065298037301798 -9.540648696319774 3.9460211001962264 0 0 0
332 1 -1.8628883827661689 -10.841701105562652 6.383033827731179 0 0 0
285 1 -0.5587489847147484 -9.286592288359401 4.787350190764727 0 0 0
284 1 -2.8030590558942627 -8.571656306997887 6.149642570755958 0 0 0
447 1 -13.176852733145559 -6.629671604876414 5.473338015693699 0 0 0
343 1 -10.933696617327568 -7.198807942312621 3.7824444515502584 0 0 0
352 1 -10.970427111742662 -6.340461127159667 6.189832815267728 0 0 0
288 1 -8.642826731429892 -6.830666039933349 4.725734284380135 0 0 0
290 1 -6.265614322943482 -6.672332400418445 5.391415591239998 0 0 0
328 1 -4.036531656011885 -7.350832879866311 3.8993291155299765 0 0 0
282 1 -3.8841341432286303 -6.475949984995141 6.304886546903038 0 0 0
283 1 -1.6123344696114774 -7.015159975669046 4.708330619037362 0 0 0
446 1 -11.998364235869541 -5.0615526449966115 3.9309644976522797 0 0 0
451 1 -11.868448838625987 -4.087141526974669 6.225588660275829 0 0 0
454 1 -9.742950020177513 -4.663039553162212 4.78140308864565 0 0 0
287 1 -7.296732791424099 -4.451297093586975 5.50022751321135 0 0 0
280 1 -5.055354861725283 -5.0629614425802885 3.990822541878426 0 0 0
289 1 -4.950707304744103 -4.197780168532843 6.380370397236664 0 0 0
470 1 -6.0646765193518855 -2.8367726420510913 3.9381009657497543 0 0 0
281 1 -2.815290918468561 -4.828548537790988 4.777013498260782 0 0 0
242 1 -0.3595082546712458 -4.520677506270728 5.522013474125494 0 0 0
453 1 -13.174563413124538 -2.9061580100754263 4.019854901156915 0 0 0
456 1 -10.765678669930827 -2.472713692012647 4.748592732446003 0 0 0
944 1 -11.81617459969859 -0.32731212204155646 4.760544999401624 0 0 0
1336 1 -13.029124482598933 -1.9738690325664923 6.327015562541245 1 0 0
469 1 -8.386929989237064 -2.184376283721191 5.4777873791687846 0 0 0
827 1 -7.295642322017952 -0.6508312611485163 3.8277584112645933 0 0 0
241 1 -3.8412579752479754 -2.535007970656343 4.748567665755218 0 0 0
246 1 -6.023477883785278 -1.9106700557805318 6.248617563703636 0 0 0
920 1 -5.000500756648291 -0.3291823570588619 4.782560328465674 0 0 0
240 1 -1.3990654066759909 -2.189723616513394 5.5613774841436765 0 0 0
420 1 -0.1957258537102433 -0.6523488793494021 3.974038508554564 0 0 0
419 1 -4.4180770341284585 -1.2539204147305725 13.157012768874058 0 0 0
392 1 -12.285686095772295 -12.693471930824 7.014031761462643 0 0 0
777 1 -10.934561363412213 -13.982253429585628 9.298083274253905 0 1 0
396 1 -12.05403099695727 -11.602506809201724 9.214665688958753 0 0 0
393 1 -9.951366007725804 -12.345269945745247 7.833886839939467 0 0 0
348 1 -7.636828458978795 -11.985527552790051 8.45557300407635 0 0 0
394 1 -8.682776651166622 -13.5292017751463 9.98725372736616 0 0 0
355 1 -9.761744179398047 -11.346559131772045 10.168690545854556 0 0 0
339 1 -5.2747035432481955 -12.725987660260012 7.089736241072085 0 0 0
341 1 -4.068037061059023 -13.914531133989248 9.315470356051591 0 0 0
349 1 -5.103829059969794 -11.764114059340343 9.41935436989716 0 0 0
49 1 -2.9927161379443508 -6.495138467834597 0.10508365820310672 0 0 0
340 1 -2.88048570570761 -12.4089830789506 7.762529093526567 0 0 0
296 1 -0.5684333346321306 -12.070051104988313 8.514242662238335 0 0 0
1237 1 -1.5651886757747757 -13.662481639633398 10.050800404774588 0 0 0
1392 1 -13.269195054829117 -10.442527449422583 6.982153607446541 1 0 0
395 1 -13.154122133470093 -9.54607818253015 9.272157680698971 0 0 0
391 1 -10.91743510382344 -10.135278560423808 7.648725645781706 0 0 0
361 1 -10.826473458633322 -9.183571112984884 9.943116249598113 0 0 0
346 1 -8.519673926546645 -9.834619898185755 8.56463152275294 0 0 0
347 1 -6.331811859642567 -10.55838062311117 7.048264791684325 0 0 0
302 1 -6.230354748285617 -9.469310215454673 9.486647601573988 0 0 0
292 1 -4.020750379846593 -10.097185824753373 7.770336707441196 0 0 0
303 1 -3.9148210709782543 -9.260009752485942 9.97542633331567 0 0 0
294 1 -2.717769477454965 -11.516929427469542 9.999176199125593 0 0 0
293 1 -1.6599479985112815 -9.790379120556224 8.485076377814323 0 0 0
353 1 -12.013730543788734 -7.96087415551383 7.863557965563146 0 0 0
309 1 -11.844189496352612 -7.021583199809302 10.113926377424871 0 0 0
300 1 -7.433896897887116 -8.297491930043734 7.076242622210373 0 0 0
298 1 -8.498350615881904 -5.931655352396449 6.983479653032433 0 0 0
354 1 -9.757351309846378 -7.573827638561811 8.502062512100157 0 0 0
310 1 -7.297718783909356 -7.315852190529964 9.369480792456656 0 0 0
291 1 -5.148375937934496 -8.001986633013765 7.860290058837585 0 0 0
301 1 -5.010481730870362 -7.075023394899734 10.044268949855745 0 0 0
245 1 -0.3944585032390897 -8.295246741828407 7.036497793532842 0 0 0
243 1 -1.4426892829670805 -6.1146709208008545 7.102483585155742 0 0 0
252 1 -2.7242785113307644 -7.619936873184012 8.664859337567634 0 0 0
253 1 -0.342332569752017 -7.347279150213882 9.313891709714696 0 0 0
449 1 -13.058388814406271 -5.7187750860626565 7.74244322473907 0 0 0
308 1 -10.729441724966708 -5.292633231096376 8.501295277762132 0 0 0
450 1 -11.874946132958211 -3.1180986156666304 8.42569299207312 0 0 0
317 1 -12.99021560341437 -4.70084938731595 10.094581214557483 0 0 0
297 1 -9.641957125379971 -3.6021215056044564 7.0512383010006054 0 0 0
256 1 -8.370454801415466 -4.986479029728766 9.32988378265198 0 0 0
247 1 -7.216475872314867 -3.486994724319535 7.788278877052843 0 0 0
468 1 -9.56618050584472 -2.8452620606564256 9.325935132121 0 0 0
299 1 -6.257361577707735 -5.802636833280369 7.713073452268276 0 0 0
249 1 -3.802620244670379 -5.476824995538294 8.645869289132353 0 0 0
427 1 -4.7780135369734875 -3.250498404779817 8.641849345915524 0 0 0
258 1 -6.013650131088026 -4.958722505941406 10.087341722970585 0 0 0
423 1 -0.19858949469527154 -3.5263131718306546 7.873008422306771 0 0 0
248 1 -2.51701903622455 -3.7635813852199664 6.959437434665549 0 0 0
250 1 -1.3083422014086725 -5.117870553418939 9.302654301160448 0 0 0
428 1 -2.464654359601397 -2.870715487137673 9.264312537944878 0 0 0
452 1 -10.700720102731717 -1.4591218487519235 6.9686926663692965 0 0 0
1340 1 -13.158857659895103 -0.9821278915068046 8.646521765616278 1 0 0
885 1 -10.544705345526685 -0.7163205472876033 9.246782470118813 0 0 0
255 1 -8.341833546405876 -1.2623140495829137 7.866532230538276 0 0 0
264 1 -8.180701883983382 -0.41270071711086764 10.172804499657904 0 0 0
266 1 -7.141180087571468 -2.6448573951351317 10.143053442442366 0 0 0
421 1 -3.6364318433198264 -1.6845429197862352 7.110910117513171 0 0 0
257 1 -5.894823877898009 -0.9437835808846149 8.593046102592321 0 0 0
426 1 -3.6543934046280473 -0.606110939535947 9.33105037210882 0 0 0
416 1 -1.1072894993957796 -0.46055049102045764 10.011590400262318 0 0 0
414 1 -1.29780390953721 -1.281051984931855 7.788788148241796 0 0 0
1308 1 -13.227023037138576 -13.156930663592439 10.81898455033901 1 0 0
364 1 -13.167618271847044 -12.360700653290676 13.180376855689289 0 0 0
357 1 -10.909923611504272 -12.991265125177758 11.643850593651948 0 0 0
359 1 -8.548090119654606 -12.612530416006814 12.438249172240642 0 0 0
315 1 -6.2164061167972955 -12.273099300553834 13.14136162482573 0 0 0
350 1 -6.293074862035625 -13.265035760189921 10.85723699133569 0 0 0
351 1 -3.8937521324645434 -13.160612898159464 11.650079842713833 0 0 0
305 1 -1.5859276719248143 -12.709733608661512 12.426668506757977 0 0 0
363 1 -12.010021072860429 -10.765656005822708 11.561861644433097 0 0 0
358 1 -7.473990499016932 -11.170001982513101 10.861394355289896 0 0 0