LAMMPS data file via write_data, version 2 Aug 2023, timestep = 0, units = metal

1871 atoms
3 atom types

-13.912628394073852 13.912628394073852 xlo xhi
-14.240551931800162 14.240551931800162 ylo yhi
-13.825690688209885 13.825690688209885 zlo zhi

Masses

1 55.847
2 1.008
3 1.008

Atoms # atomic

997 1 -11.319706270313711 -13.223289091611077 -12.890913664976326 0 0 0
999 1 -9.889143883031451 -12.028378956363087 -11.161204175277998 0 0 0
1017 1 -12.579128254316444 -11.311788612642815 -11.93398490684952 0 0 0
1018 1 -10.561735901755975 -10.26354678614021 -12.743320449874656 0 0 0
998 1 -12.031488989779486 -13.117706108985256 -10.260812175267157 0 0 0
1000 1 -11.257311033320844 -10.151328694170491 -10.275512623375846 0 0 0
1112 1 -9.195294363035567 -9.289157190665279 -10.912622156568597 0 0 0
960 1 -13.448299155764829 -11.363174970437424 -9.420643684272747 0 0 0
1091 1 -8.536413042906823 -13.79087391979642 -11.832208884028462 0 0 0
1357 1 -9.384150862053094 -13.7685656475772 -9.41482033290367 0 1 0
1093 1 -8.628948891871913 -10.895421776550599 -9.183642541576635 0 0 0
1842 1 -13.24586466310225 -9.566496707833549 -13.670423987572388 1 0 0
65 1 -8.44367936951961 -9.188921082339276 -13.746486973859145 0 0 1
1111 1 -9.232294114836535 -11.992580044141414 -13.790668071862825 0 0 0
983 1 -10.655060406530326 -12.035389263709442 -8.44467425459709 0 0 0
985 1 -9.961836545784491 -9.19761954044191 -8.253736645583999 0 0 0
1092 1 -7.791528070755156 -10.948710170021034 -11.851335825388887 0 0 0
1181 1 -7.133905255058091 -12.48994070447005 -10.091025637120504 0 0 0
1198 1 -6.550272648582297 -12.64390179806869 -12.870085435677762 0 0 0
1199 1 -5.868974198036817 -9.747259745961477 -12.769750233820185 0 0 0
1200 1 -6.511125604419171 -9.719297630299483 -10.096478282459564 0 0 0
1306 1 -5.133584910413925 -11.461340770427793 -11.118043700619763 0 0 0
1287 1 -3.9151722412797483 -10.395905336301722 -9.312140688756138 0 0 0
1180 1 -4.511785396287209 -13.2080227631439 -9.27229220574047 0 0 0
1179 1 -3.8012270069070535 -13.252385510626981 -11.995274894144769 0 0 0
1305 1 -3.0682373763711777 -10.432406983733822 -12.000386067060793 0 0 0
1182 1 -5.907182094670123 -11.46729362997772 -8.29954816134441 0 0 0
1324 1 -3.6410395643420586 -8.680202838605508 -13.680021514048285 0 0 0
63 1 -4.426682122022834 -11.58697111902296 -13.687313079741374 0 0 1
1201 1 -4.417584788201124 -8.710056129088343 -10.964196857547549 0 0 0
1304 1 -1.6996695977068743 -12.097362874390338 -12.914458268232277 0 0 0
1286 1 -2.4939656016378393 -12.100686569566143 -10.080838848525158 0 0 0
1392 1 1.029547518651528 -12.73884279284937 -11.899188670206053 0 0 0
1376 1 0.21904779418952103 -12.765159014998531 -9.243258594161192 0 0 0
1393 1 -0.35480271101372374 -10.984615696911144 -11.060914217939642 0 0 0
1624 1 1.7634167353051016 -9.97931481833216 -11.787530427128484 0 0 0
1412 1 -0.9167639794856903 -9.28990950908521 -12.742383727705741 0 0 0
1378 1 0.9134701739878963 -9.867890164373787 -9.190291963934435 0 0 0
1391 1 -1.1743609431283435 -13.686348575602683 -11.097261911594028 0 0 0
1482 1 2.40378177029395 -11.668000631651992 -10.107160173093362 0 0 0
1288 1 -1.799472462175494 -9.501852150361254 -10.097262407299784 0 0 0
1455 1 -1.9475513003398337 -13.85829030468353 -8.54638032717006 0 1 0
1411 1 0.3813202709492831 -11.097891353340236 -13.68818191152709 0 0 0
1272 1 -1.1018898905583185 -11.026895831185175 -8.35545953170714 0 0 0
1468 1 2.693849014946572 -13.43856896741713 -8.434426325823914 0 0 0
1501 1 3.1120412768404933 -8.854723791000126 -10.005730048453584 0 0 0
1500 1 2.9548735459937205 -11.721330882003677 -12.913520160090798 0 0 0
1498 1 3.700190464964514 -13.401431402361377 -11.145941554538751 0 0 0
1604 1 5.723911763383775 -12.273132266958582 -11.843695925230678 0 0 0
1606 1 4.366702159642031 -10.564956346599127 -11.003283008644917 0 0 0
1481 1 6.9074036245035515 -11.133586659805143 -9.964717296340275 0 0 0
1607 1 6.501763921402848 -9.418528499932972 -11.860947998043821 0 0 0
1483 1 5.682252313958912 -9.322599249146654 -9.106322634053582 0 0 0
1469 1 4.912849100272325 -12.322119693509409 -9.252873789123502 0 0 0
1586 1 7.729755116787523 -11.220046974066257 -12.760403474173007 0 0 0
1584 1 7.038454864192115 -13.929459329467347 -12.989265233046833 0 0 0
337 1 3.755285908608144 -8.820387629442667 -12.71854729205577 0 0 1
1570 1 7.5333791990483405 -12.9340792352317 -8.372246207344705 0 0 0
1585 1 6.257548346492012 -14.06262085322424 -10.206943864158864 0 0 0
1499 1 4.96517636037936 -10.668843279201578 -13.690407748566987 0 0 0
1781 1 8.25529580122813 -13.011363100492108 -10.942855457161379 0 0 0
1589 1 3.671263067806912 -10.677933736915962 -8.2283967065533 0 0 0
1572 1 8.410751380127873 -10.216737640639064 -8.325366340734748 0 0 0
1497 1 4.367240015964924 -13.500569899787585 13.820987147701118 0 0 -1
1784 1 13.788539337799062 -9.629142461720978 -10.970473704305888 0 0 0
1712 1 9.133527545459284 -10.107324259384875 -11.001427445881202 0 0 0
1693 1 9.697643719507663 -11.90802202341994 -9.290965828271553 0 0 0
1692 1 10.280318623553498 -11.955333417816522 -11.993558416510496 0 0 0
1783 1 11.580894262470679 -10.852344909541447 -10.198689358722662 0 0 0
1676 1 10.972476814988056 -13.593447550548305 -10.27056237327106 0 0 0
1764 1 12.932584383999483 -12.44960893701045 -11.118128163332653 0 0 0
1871 1 11.81298100321678 -13.628240843649474 -12.932545890623935 0 1 0
1782 1 12.516092019365122 -10.624111067902987 -12.831641581921152 0 0 0
1802 1 11.154850309370513 -8.93093581444802 -11.837268617858333 0 0 0
1694 1 10.436621663030142 -9.200615040358329 -9.175600099983363 0 0 0
1801 1 9.775894651927313 -10.024434910428143 -13.613897723084511 0 0 0
1765 1 12.376031259393727 -12.47587335859044 -8.37493940261281 0 0 0
1691 1 9.019523828592721 -12.929393539032189 13.70601968318978 0 0 -1
1780 1 13.79750816469813 -12.50087946949079 -13.770708336318341 0 0 0
1766 1 13.217373964725049 -9.65741387171466 -8.316109822958884 0 0 0
961 1 -12.62451469606161 -8.54812142507419 -9.103028771868622 0 0 0
1019 1 -11.990527305848309 -8.464822989318932 -11.812750399489989 0 0 0
1020 1 -11.17653001058697 -5.766550943088024 -11.695882421751445 0 0 0
1021 1 -11.868921171491468 -5.8042390962154915 -9.03675549208174 0 0 0
1113 1 -9.77087899230041 -7.470190614738152 -12.699702103485286 0 0 0
1115 1 -9.110916596892878 -4.6904273074900775 -12.578447005862946 0 0 0
1001 1 -10.52137481305979 -7.4600891095877335 -10.05933674866669 0 0 0
1037 1 -13.238024239445677 -6.744989235160557 -10.885255330376191 0 0 0
1095 1 -9.758130944171011 -4.728340931410367 -9.79202836702978 0 0 0
1129 1 -12.377257551358744 -4.006713072892099 -10.870898820833416 0 0 0
51 1 -11.748233147471563 -4.096908453179038 -13.527006017697792 0 0 1
57 1 -12.515929723253944 -6.819082293466226 -13.618435374692947 0 0 1
1114 1 -8.426995463518065 -6.449665583908842 -10.814853619047284 0 0 0
1851 1 -13.777417999844294 -5.064128759600907 -12.634202346841446 1 0 0
1094 1 -7.833363597759003 -8.124966153251771 -9.01357186745934 0 0 0
1096 1 -7.119002915871607 -5.286958405332278 -9.076921794500937 0 0 0
1219 1 -7.221822132721578 -8.123744474806575 -11.81996709071317 0 0 0
1203 1 -5.089369847961963 -4.124824040201792 -9.903165556533695 0 0 0
1221 1 -6.540007097505025 -5.283993501534377 -11.70962446950241 0 0 0
1325 1 -5.001672086618534 -6.981023004055485 -12.681395653953164 0 0 0
1308 1 -3.654655350976137 -5.966195901782413 -10.793944645185338 0 0 0
1202 1 -5.727002211410481 -7.058179431362131 -9.983299944747976 0 0 0
1222 1 -4.422659544429582 -4.205747528543734 -12.53886714175194 0 0 0
49 1 -7.005611983745905 -3.612784434269095 -13.487903494139053 0 0 1
1183 1 -2.945873964703056 -7.630899621536569 -9.058318018086139 0 0 0
1220 1 -7.686083778664827 -6.436980156334904 -13.534622050041506 0 0 0
1223 1 -7.708638400551235 -3.477348047050306 -10.68048077804847 0 0 0
1429 1 -2.877181661957515 -5.905542315799561 -13.41777729712725 0 0 0
1327 1 -3.0765179921661208 -3.095115075129339 -10.625519757526497 0 0 0
1310 1 -2.310672313233626 -4.77996558925866 -8.986801442321234 0 0 0
1394 1 0.3604416683003997 -8.184672858593503 -10.864514079018065 0 0 0
1307 1 -2.3387927315522887 -7.617953794994155 -11.849625262238455 0 0 0
1290 1 -0.9839855934878194 -6.605639579354788 -9.97270798481663 0 0 0
1309 1 -1.6270903637129646 -4.863228000541179 -11.579283234394357 0 0 0
1414 1 1.167665215366176 -5.405434463848291 -10.788472085519023 0 0 0
1413 1 -0.21776480317735825 -6.397099558881871 -12.542888452690438 0 0 0
1416 1 -0.25158374069415856 -3.767696697306974 -9.794181267414613 0 0 0
1504 1 2.4694476212294596 -4.320636302968939 -8.995269010263527 0 0 0
1502 1 1.6213457251346544 -7.123612784041821 -8.978529328729481 0 0 0
1415 1 0.4452113543966334 -3.613514469051484 -12.482431536750095 0 0 0
1521 1 2.369912459749976 -7.168783624058951 -11.83482293397246 0 0 0
1536 1 1.6954104473802118 -5.3706717347182416 -13.586175258434048 0 0 0
1519 1 1.0041416002010592 -8.171599220100362 -13.637161841993734 0 0 0
1326 1 -2.210033285493731 -3.0914293747195973 -13.364564329506186 0 0 0
1289 1 -0.49201773647014235 -8.180591384968109 -8.202120699618387 0 0 0
1523 1 3.151100001294921 -4.285758397060283 -11.730231988762618 0 0 0
1588 1 7.848252444650122 -8.383138532561555 -10.02287241173216 0 0 0
1503 1 3.625702102913422 -6.04747966161378 -9.853461246794039 0 0 0
1608 1 4.980720989066022 -7.710193944808843 -10.867907024275919 0 0 0
1609 1 5.900266871946947 -4.8750588466586 -10.86497359500703 0 0 0
1625 1 4.56693876933312 -5.971263132797155 -12.497376221953063 0 0 0
1590 1 6.410587604465146 -6.635619016835191 -9.084019855161088 0 0 0
1731 1 8.063972211967322 -3.733318091644005 -11.540966401743333 0 0 0
1819 1 7.066969079018904 -6.7214724229914005 -11.703642823675358 0 0 0
1610 1 7.1860751120856 -3.8520269076321974 -8.908879124620437 0 0 0
320 1 6.577198520367258 -4.8537848852430585 -13.222617473227693 0 0 1
1730 1 5.807685382369026 -7.7293869741736145 -13.60299207683157 0 0 0
1522 1 5.184882277251486 -3.1180978234129046 -12.622473330147312 0 0 0
1627 1 4.43429059465338 -3.2322780207698756 -9.978457420900002 0 0 0
1485 1 4.375762055946758 -7.7789496339843405 -8.204251024660671 0 0 0
1714 1 8.468863779882192 -5.573768038334068 -9.87165920243279 0 0 0
1713 1 8.422602065045563 -8.364899791697379 -12.833948683158994 0 0 0
1022 1 13.282832026406503 -4.949222306144945 -9.955904558739308 -1 0 0
1023 1 11.186958276787323 -6.22490220269675 -9.065956824072977 -1 0 0
1038 1 12.084075066472444 -6.121268140318943 -11.690424697528698 -1 0 0
1716 1 10.600175687488566 -4.404938992644592 -10.712702875052985 0 0 0
1844 1 9.832461504712501 -7.248536818987668 -10.791930770312606 0 0 0
1715 1 9.25508298123377 -5.527299325188222 -12.49428909500871 0 0 0
7 1 13.289155329353484 -7.777031734332863 -12.653921711015482 -1 0 1
1785 1 12.521176504048388 -7.8775609010846175 -10.09211760804869 0 0 0
1843 1 11.49450395029763 -4.4527506703110245 -13.513274525776326 0 0 0
1807 1 12.024018062174768 -3.284384293310895 -8.964004483064972 0 0 0
1806 1 12.734895254797873 -3.3082916025049016 -11.66560518130941 0 0 0
1805 1 10.520516605462952 -7.2346020614465925 -13.511667812926778 0 0 0
1786 1 9.078938069587071 -7.437447633008178 -8.178374932171604 0 0 0
1003 1 -11.143183812534911 -2.9986122653913654 -8.9972198935187 0 0 0
1130 1 -10.4533779167446 -2.996926059565487 -11.658799834624247 0 0 0
1024 1 -11.649839420912091 -1.186622234066089 -10.787687038254237 0 0 0
1040 1 -13.081612216159316 -2.3283603994857405 -12.493279404132304 0 0 0
1042 1 -11.06590799704965 1.5451085502320083 -10.550317368248121 0 0 0
1131 1 -9.528445719513497 -0.06949475123229121 -11.583559274341098 0 0 0
1117 1 -9.076934667048821 -1.7823873348904886 -9.76430575783731 0 0 0
1852 1 -13.046080550011201 0.4041150407466372 -9.714297091000553 1 0 0
44 1 -12.276645092617112 0.650269686926384 -12.48114728085713 0 0 1
1225 1 -10.418903075176651 -0.12426729831072336 -8.84355249475605 0 0 0
1039 1 -11.032510809601028 -1.2173676018447956 -13.453722500387121 0 0 0
1237 1 -10.20392599399084 1.6428812858897732 -13.188482771045127 0 0 0
1043 1 -13.624694801259608 2.263203975546592 -11.473729721896404 0 0 0
1236 1 -8.4433910870573 -1.9388368878526254 -12.560261780856548 0 0 0
1119 1 -8.39202524961572 1.0660878744444915 -9.648274611878584 0 0 0
1822 1 -13.606866726409956 -2.237963272859883 -9.861098166842552 1 0 0
1238 1 -7.501081287504785 0.9834042251914035 -12.464936399017793 0 0 0
1224 1 -5.702328641421831 -2.4575201447007995 -11.624125697459627 0 0 0
1329 1 -5.741912457562394 0.48942704380802127 -8.85777544254023 0 0 0
1341 1 -7.074207444231988 -0.7428136568052359 -10.61272980740038 0 0 0
1328 1 -3.651927897375659 -1.3201807015657572 -12.481800845080812 0 0 0
1330 1 -3.561016016816197 1.598249799783062 -9.784007308637342 0 0 0
1205 1 -4.361090572274215 -1.2380460868837364 -9.844126406636972 0 0 0
1098 1 -6.3189092138322875 -2.383946754580398 -8.921643482908184 0 0 0
1342 1 -5.007323750718662 0.33938010409916153 -11.654669051194801 0 0 0
1340 1 -6.2986785558718115 -0.7229892618371156 -13.28157033921305 0 0 0
1226 1 -6.247320483618763 2.07824768803815 -10.62154242302007 0 0 0
1239 1 -5.406048210876801 2.04980827132049 -13.289274424149678 0 0 0
1443 1 -2.914021675091462 1.4592390612356798 -12.456629396998338 0 0 0
1311 1 -1.5453282905205192 -2.0457015847641014 -8.9835660926597 0 0 0
1432 1 -2.3433001083318334 -0.21995615393448098 -10.662025149695799 0 0 0
1430 1 -0.9390577770646651 -1.9543609503486241 -11.64061665574306 0 0 0
1431 1 -1.5812731599638035 -0.25718049991997916 -13.292666555772081 0 0 0
1417 1 1.865289384004038 -2.5878536739216695 -10.747354957206607 0 0 0
1539 1 1.0653038903957288 -0.887641619577531 -12.525530953732787 0 0 0
1433 1 -0.16758139263492566 0.8210938330644293 -11.455020140592868 0 0 0
1527 1 0.4630649198809227 -0.946663932521334 -9.802364735712915 0 0 0
1402 1 -0.8781971300208049 0.9682674793458528 -8.915185877508636 0 0 0
1541 1 1.2474804179188688 2.0700573680857524 -9.605665408119789 0 0 0
1540 1 1.8369932689147461 2.030246275257408 -12.305209066689955 0 0 0
1537 1 2.447101840409484 -2.5761384196594843 -13.42932820102488 0 0 0
1526 1 2.393158306919201 0.3154298460346201 -10.700475865344837 0 0 0
125 1 -0.7962629447274683 2.6489981365443676 -13.289965464731493 0 0 1
1525 1 3.1771389203526894 -1.4690369319244727 -8.970433888788982 0 0 0
1611 1 6.690297199803233 -2.18643603538116 -10.678917165611026 0 0 0
1641 1 3.0999736333488173 0.2156694043153884 -13.372707818180157 0 0 0
1524 1 3.836780797193022 -1.3911715103417013 -11.692940749763082 0 0 0
1629 1 5.221120902612878 -0.45091304803443855 -9.92986229244878 0 0 0
1733 1 7.182670723395024 0.7237336404539327 -10.65099777622152 0 0 0
1642 1 4.538431225413362 1.2995506404564026 -11.55937174611844 0 0 0
1631 1 3.8319377734877165 1.318147913546298 -8.887428396507627 0 0 0
123 1 6.030304850228308 -0.4327535357583159 -12.451582800736052 0 0 1
1626 1 7.3474966628768 -2.0840165291900075 -13.41199207441256 0 0 0
1628 1 8.169387446094792 0.6540700234126522 -13.263430508384563 0 0 0
1718 1 7.897874568987529 -1.0272713226144425 -8.84550359714764 0 0 0
1745 1 6.6061310551375065 2.4301994673280127 -12.425930545054921 0 0 0
1630 1 5.898078633102799 2.505567413139783 -9.818151081912246 0 0 0
1734 1 8.651794339607065 1.7651149220866493 -8.890358740339202 0 0 0
1717 1 8.691570125179972 -0.886391008192577 -11.484846090062833 0 0 0
1592 1 9.21264010509639 -2.7481257557164334 -9.85165592057078 0 0 0
1853 1 13.434666566842235 -0.681094830810208 -11.648190230826172 0 0 0
1732 1 12.047306489902542 1.1948718458215222 -10.560160725931134 0 0 0
1820 1 10.16949251916758 -2.6635801594712394 -12.509055637866494 0 0 0
1719 1 10.051207634327422 0.09017966610556982 -9.790756682590413 0 0 0
1823 1 11.391439733548083 -1.5406410886460176 -10.544744520795714 0 0 0
1845 1 12.781891213381574 -0.6220893502165694 -8.879732321233323 0 0 0
278 1 10.829154758235244 0.15345950338762826 -12.404625851791675 0 0 1
1863 1 9.460194696680265 1.8369535939101702 -11.41815621898478 0 0 0
235 1 12.860115469147441 1.229461887307373 -13.311580807314103 0 0 1
1821 1 12.139772093444503 -1.581783112054536 -13.31792622607186 0 0 0
1809 1 13.496962698093707 2.3298662042607816 -8.722291516551145 0 0 0
1133 1 -8.831497390742005 2.672209225665771 -11.454793949321314 0 0 0
1143 1 -11.58819203917482 3.3008582755885385 -12.376888316156968 0 0 0
1132 1 -12.29301210327014 3.479962295524782 -9.805303983217687 0 0 0
1054 1 -10.76761531525542 6.218365067107136 -12.287674563046581 0 0 0
1135 1 -11.545761636263908 6.228882046600301 -9.637459965756076 0 0 0
1144 1 -10.23183885365012 4.457664268054039 -10.624224345772987 0 0 0
37 1 -9.577653715440901 4.444453796186011 -13.237605709776481 0 0 1
1045 1 -12.880230804886846 5.162143589684966 -11.493715353972759 0 0 0
1028 1 -8.904282826449094 5.565544761562229 -8.833249067434696 0 0 0
1026 1 -9.685682685338453 2.7889008637268162 -8.822121554738644 0 0 0
1137 1 -9.44115941281897 7.325873818397106 -10.407627429580886 0 0 0
215 1 -13.535324303919325 6.84137020923286 -13.161793346920867 1 0 1
1145 1 -8.691006629925326 7.403192534814597 -13.298211857957506 0 0 0
1046 1 -13.769300841297978 5.156736614335358 -8.80161227028119 0 0 0
1146 1 -12.94904432270577 8.060119227418731 -8.757559688152538 0 0 0
1857 1 -12.06615656807108 8.07422904081972 -11.355196619127286 1 0 0
1249 1 -8.099903817453434 5.631689397662242 -11.421323837509023 0 0 0
1134 1 -7.577171701332315 3.8684816121908696 -9.694338464206833 0 0 0
1241 1 -5.4958785154754395 4.910682829353409 -10.67161078354067 0 0 0
1136 1 -6.785498751989315 6.7516907204804575 -9.69348295018993 0 0 0
1228 1 -6.773002635482531 3.836757896108196 -12.384009543897816 0 0 0
1343 1 -4.214857299114639 3.230263023071963 -11.60218590476856 0 0 0
1351 1 -4.707457711717661 4.86856426644345 -13.286547243633146 0 0 0
1121 1 -5.993211151150255 6.7830165674745615 -12.34160742221928 0 0 0
1344 1 -3.4265140820338296 5.950373277372247 -11.476727547465245 0 0 0
1333 1 -4.161829943587001 6.1113545485846 -8.951064071244142 0 0 0
1331 1 -4.912909034861949 3.282947583343173 -8.823911681538041 0 0 0
1242 1 -4.748181818435722 7.867438993434526 -10.552628369850602 0 0 0
1250 1 -3.910942747067727 7.6545169019915384 -13.175076649776221 0 0 0
1332 1 -2.9462978220460627 4.257461181045393 -9.746192529077554 0 0 0
1434 1 -1.528773519241522 2.6773735901383233 -10.543285475455324 0 0 0
1444 1 -2.0587944803699205 4.2167659874190555 -12.272480409491342 0 0 0
1435 1 -0.736500801509866 5.40447749760359 -10.530453203823054 0 0 0
1445 1 0.0378526237082486 5.432915095454689 -13.198298881922447 0 0 0
1543 1 1.895350373392258 4.884967087399129 -9.730754977654016 0 0 0
1550 1 0.568304783606191 3.7037561403725974 -11.400793751945226 0 0 0
1551 1 1.3547852178171578 6.5936311908641905 -11.425927142456274 0 0 0
1437 1 0.582947276579155 6.525266798499128 -8.703362567951338 0 0 0
1421 1 -0.11712768987521294 3.6630929280972566 -8.635543433894519 0 0 0
1446 1 -2.0778144409546897 7.225125987648269 -9.652498970776078 0 0 0
1452 1 -1.214009940001855 7.106095361905236 -12.292554037043054 0 0 0
1544 1 2.6352107167415184 7.6513447984956855 -9.618820774564059 0 0 0
1542 1 2.710095951889386 4.837417235521183 -12.316405160008753 0 0 0
1643 1 3.36207725437583 3.1493719008083794 -10.501545909231469 0 0 0
1652 1 3.929498546701236 3.069280394901469 -13.360675069987183 0 0 0
1632 1 5.294756993286821 4.2537060317911894 -11.485591151397287 0 0 0
1644 1 4.739917532617369 5.791420264483239 -13.175019546107208 0 0 0
1747 1 3.998304956407651 5.97826871684401 -10.629827469596016 0 0 0
1646 1 6.192298771145076 7.069087050013277 -11.355397259137137 0 0 0
1738 1 6.663694003310358 5.3016367172496 -9.55825886221674 0 0 0
1633 1 4.535365911764799 4.23514715544643 -8.622517519115533 0 0 0
1645 1 5.2480825374732305 7.044003067177709 -8.713788598481509 0 0 0
1736 1 7.969780022314154 3.450940934137858 -10.501070280402473 0 0 0
1828 1 7.404463409174653 5.248661103967041 -12.272643834712573 0 0 0
1653 1 3.449797171491742 7.5905039405626695 -12.354611937070064 0 0 0
1749 1 7.46493539149435 8.129701528817062 -9.484076593080855 0 0 0
1748 1 8.193249570637551 8.232975505600429 -12.09400807392417 0 0 0
1833 1 8.787402519589747 3.594015728224072 -13.159084956950357 0 0 0
5 1 13.512286417648514 3.936880828547128 -13.174625908237939 -1 0 1
1854 1 12.89391232157832 3.9116801075766823 -10.539120744577271 0 0 0
1824 1 10.667510581570689 2.9305454989648254 -9.534276484988482 0 0 0
1053 1 11.377378759094665 2.8808560295091397 -12.19959370493543 -1 0 0
1825 1 10.065239919581948 4.656981023597819 -11.358993977798962 0 0 0
1834 1 9.477308603772808 6.33563990441646 -13.041431657958853 0 0 0
1856 1 11.338332678621882 5.815210639292541 -9.731419486942954 0 0 0
1855 1 13.626481019343068 6.823097959362798 -10.557571460344061 0 0 0
1826 1 9.266830155717901 4.649913992600634 -8.746616337601624 0 0 0
1827 1 10.820942817106342 7.546590622556906 -11.350581019770702 0 0 0
1055 1 8.584557968783422 6.358122213457218 -10.62532356074193 -1 0 0
1815 1 10.199301225002806 7.481711415623828 -8.70874370075164 0 0 0
1864 1 12.160650844793203 5.7398768741733655 -12.303893408683336 0 0 0
1148 1 -10.767694781578193 9.061550066673703 -9.436380627472236 0 0 0
1147 1 -9.909649116049392 9.121648382406065 -12.18608966365646 0 0 0
1149 1 -10.05103513842544 11.85153216364844 -9.32186868528034 0 0 0
1154 1 -11.998711524713675 12.509599852257107 -12.912650925251906 0 0 0
1255 1 -9.278167741739413 11.917976146388114 -12.13802652171482 0 0 0
1865 1 -12.787686889997024 9.756809714724302 -13.09584656278317 1 0 0
1861 1 -12.768729856379165 12.516704168754071 -10.305341600791733 1 0 0
1153 1 -11.424052262973955 10.819251698882955 -11.248101185873544 0 0 0
1150 1 -12.17829075206423 10.790983741115149 -8.631949460204378 0 0 0
1252 1 -8.744800144658003 10.218986421590412 -10.32854861578449 0 0 0
1152 1 -13.438885807470836 9.658020457082088 -10.539003547755447 0 0 0
1155 1 -10.597879110384243 13.639006027409266 -11.19253456430482 0 0 0
1151 1 -11.474181149148258 13.668892865307956 -8.619434621827802 0 0 0
1090 1 -9.98510544297307 13.676658387650921 -13.752470857489488 0 -1 0
1244 1 -8.132628343786287 8.535780767775172 -8.600380765704626 0 0 0
1141 1 -7.893935770411135 13.1014271400837 -10.079996431673312 0 0 0
1251 1 -7.8803762904420696 10.236477004414738 -13.082174832510209 0 0 0
1243 1 -7.360213877259602 8.48698102917886 -11.223939159554462 0 0 0
1253 1 -5.269025793358747 12.34274293170629 -9.32092307762828 0 0 0
1348 1 -3.8842709716836232 10.835265376087637 -10.288741502938215 0 0 0
1354 1 -5.14922417094154 9.537879129545452 -12.279148422897833 0 0 0
1355 1 -4.474630531694519 12.52367928992009 -12.04881229420484 0 0 0
14 1 -6.523581639958478 11.296371104997693 -11.206706155857113 0 0 1
1347 1 -6.085233996174759 9.580582718997722 -9.402959282105659 0 0 0
1336 1 -3.4635655073122287 8.983918569506258 -8.721778046481742 0 0 0
1218 1 -7.151423411575455 12.979594799941296 -12.800216591812282 0 -1 0
1245 1 -7.336013456800133 11.402487489589468 -8.481824664092208 0 0 0
1284 1 -3.1455648394748934 10.874522764677238 -13.139971523837893 0 -1 0
1449 1 -3.1711057287774427 13.528242397228691 -10.169950328315178 0 0 0
1345 1 -2.5523679793830816 8.95959826301457 -11.389218685312448 0 0 0
1552 1 0.753963217938951 8.34746456106182 -13.202259844687404 0 0 0
1450 1 -2.5539327472707622 11.81528925425247 -8.509954161481037 0 0 0
1447 1 0.006617933365996365 8.276875997021165 -10.447284997816668 0 0 0
1390 1 -2.4153628363420196 13.543230447005602 -12.857934221796281 0 -1 0
1346 1 -1.2836377844426075 9.937044708642635 -9.456533081726375 0 0 0
1556 1 1.536819841662025 11.13718429643433 -13.068761346548804 0 0 0
1553 1 2.1474749917387186 9.368087175125407 -11.363958053096251 0 0 0
1555 1 0.7141955028556222 11.12578453973055 -10.285471243898527 0 0 0
8 1 -0.5641250732527272 10.159045219956624 -12.249351915877844 0 0 1
1451 1 -1.7965512629617582 11.83680028199748 -11.17050665550184 0 0 0
1454 1 0.23514929647116212 13.026189173011172 -12.16872944429031 0 0 0
1546 1 1.4218519183320506 9.406497083446109 -8.597135695351131 0 0 0
1375 1 -0.4375752978497527 12.927317404012328 -9.435116352773214 0 -1 0
1548 1 2.0538006470605286 12.321150523632678 -8.50836104925725 0 0 0
1557 1 2.797642870779441 12.117787920284869 -11.262047941713247 0 0 0
1456 1 -1.1513227933754688 11.831533076694168 13.675010385974367 0 0 -1
1554 1 3.4412890895092723 10.451242028428613 -9.516886096841024 0 0 0
1655 1 4.204277936233243 10.487345931106901 -12.320055549952404 0 0 0
1648 1 4.731683375626652 8.59929561213724 -10.484864996200269 0 0 0
1654 1 5.570959142821621 8.672532010674558 -13.231706880901271 0 0 0
1656 1 6.363611824232514 11.524713104043133 -12.989393744284968 0 0 0
1754 1 6.744776017323016 9.729236799641225 -11.2418965557158 0 0 0
1756 1 5.551050532250947 11.441680316281772 -10.370793062610336 0 0 0
1752 1 7.5722264052627075 12.59322158466015 -11.1348184994626 0 0 0
1751 1 6.107373360639503 9.741325307876426 -8.542641217361705 0 0 0
1750 1 8.080967496667022 10.934045502120327 -9.51736266479671 0 0 0
1479 1 5.018823623103568 13.308508347086551 -11.959113816315535 0 -1 0
1657 1 4.137412752121929 13.342986240513923 -9.409348306559574 0 0 0
1650 1 6.761301834488535 12.702136721771232 -8.545123072025625 0 0 0
70 1 3.6930644829223525 12.368345487310272 13.754761274806462 0 0 0
1867 1 13.655765057915975 11.417513291217613 -12.093975898785263 0 0 0
1859 1 12.18978107319932 8.577949515930701 -9.519338196643211 0 0 0
1840 1 8.993101118845335 10.927090479671616 -12.154682662858642 0 0 0
1866 1 12.852282625079258 8.522590485549646 -12.312637323948609 0 0 0
1835 1 10.375926494234871 9.300047240182224 -13.104585310443463 0 0 0
1836 1 9.44289486973404 9.165914502287755 -10.37459741376221 0 0 0
1837 1 11.552169981962518 10.107328781828972 -11.270604882325374 0 0 0
1868 1 12.97459033604716 11.389307358676124 -9.478028697319136 0 0 0
1870 1 11.142368777902782 12.12217659649507 -12.900771047796523 0 0 0
1838 1 10.185156016677933 12.048981419090971 -10.371437230304391 0 0 0
1839 1 12.44875298569956 13.095702681276403 -11.137369731987432 0 0 0
1858 1 10.807839782293783 10.363040234908176 -8.619339596779838 0 0 0
1831 1 11.588918324402684 13.153919159668884 -8.656172548111437 0 0 0
3 1 13.1256031941395 13.18268506943354 13.730255135329525 -1 0 0
1841 1 9.597914429921524 13.79340131368657 -12.149576145327911 0 0 0
1869 1 12.295022951740293 10.311965507861164 13.737882867752944 0 0 -1
959 1 -13.388082666253533 -14.118983167157108 -11.966694191633929 0 0 0
1254 1 -6.531664713294333 14.121240288561388 -8.415290569071932 0 0 0
1256 1 -5.811474597003409 14.179579276848642 -11.05866561244046 0 0 0
1197 1 -5.230635102510181 14.108734006509358 13.78296416934133 0 -1 -1
1480 1 1.5785443284315583 14.016595855978665 -10.154343980319425 0 -1 0
1658 1 2.3505263119665116 13.953095475210127 -12.89503768338295 0 0 0
1763 1 13.75331160821673 -14.167781252101744 -9.47575724456942 0 0 0
1675 1 8.855586256576583 13.777652063944622 -9.351408508027292 0 -1 0
1057 1 -12.012173215123742 -10.368322811562626 -7.518339295299549 0 1 0
939 1 -13.593237297777323 -13.060080782565596 -4.927086692669169 0 0 0
948 1 -12.761365585752266 -10.309630385851518 -4.770317136766165 0 0 0
984 1 -12.84205143798549 -13.203678312793237 -7.4779547466342855 0 0 0
972 1 -10.125202780085749 -13.637129373995574 -6.70535555622217 0 0 0
973 1 -11.46670274497754 -12.015992674391573 -5.7273490904448785 0 0 0
1068 1 -10.114852172958166 -10.778833688845987 -3.9141123069541557 0 0 0
974 1 -9.337490804798414 -10.996014368768206 -6.586765146830214 0 0 0
1036 1 -10.898205129878608 -13.796432654778677 -3.982005442936263 0 1 0
970 1 -8.735887839012001 -12.538952846405556 -4.761787907859443 0 0 0
986 1 -10.64612343701183 -9.131238878077344 -5.817370012891686 0 0 0
940 1 -12.288335785702461 -11.956197832062715 -3.0530943684282423 0 0 0
941 1 -11.538106254853865 -9.10188196334212 -2.975004081405901 0 0 0
1078 1 -5.192195622032081 -8.570175601833707 -8.35352826993001 0 0 0
1075 1 -7.991465246003481 -12.677531163234857 -7.460095525846127 0 0 0
975 1 -7.959164245037528 -9.80371970507338 -4.911896688859606 0 0 0
1077 1 -6.585845615712115 -11.496483620795683 -5.693931209853966 0 0 0
1285 1 -3.254500297859188 -12.151547326960673 -7.379873425083676 0 0 0
1076 1 -7.277987718985751 -9.776513056637803 -7.459751433361663 0 0 0
1067 1 -4.632663943709909 -10.413627947436252 -6.518337561731797 0 0 0
1168 1 -3.1344895312653414 -9.141622781198587 -4.734852604041357 0 0 0
1170 1 -5.239239471931722 -10.487289567076871 -3.8705985247745094 0 0 0
1260 1 -3.9322734116208053 -12.0529829664785 -4.803460375873257 0 0 0
1159 1 -5.4162718285301885 -13.259155962895674 -6.616210254277086 0 0 0
1061 1 -7.451228600723729 -11.434122933627517 -3.0939848793360003 0 0 0
1261 1 -3.3514230012434307 -13.779280680159022 -3.0722227851696235 0 0 0
1060 1 -5.987502078281236 -13.209117447085816 -3.9584544968385504 0 0 0
1442 1 -2.674893656043986 -13.746734354601964 -5.694636259285236 0 1 0
1063 1 -5.832402057729931 -8.613371223467682 -5.576457616030654 0 0 0
1165 1 -6.682649014917624 -8.633795574843571 -3.0489883821826638 0 0 0
1161 1 -2.665890446364827 -10.939669199242797 -2.949741639913423 0 0 0
1169 1 -2.538789708851967 -9.327359040323627 -7.373947810506165 0 0 0
1270 1 -0.553481463487504 -12.761839991200677 -6.638717559042663 0 0 0
1167 1 -1.8986421580441704 -10.965436427602246 -5.63112484767638 0 0 0
1262 1 0.8369681342070852 -11.791778504299273 -4.7075856328068575 0 0 0
1377 1 1.5063667489382677 -11.689799019011303 -7.442998385670136 0 0 0
1379 1 0.17271638257622435 -10.031755726475124 -6.535923242172051 0 0 0
1350 1 -1.2482508816843065 -12.748526159397484 -3.965079492519548 0 1 0
1259 1 -0.5625438072024274 -9.84405403270879 -3.6775844117789305 0 0 0
1366 1 1.431179671006122 -13.39062898084093 -2.9554912396034716 0 0 0
1361 1 2.1047716110976573 -13.43963602589836 -5.651959088470026 0 0 0