LAMMPS data file via write_data, version 2 Aug 2023, timestep = 0, units = metal

1845 atoms
3 atom types

-13.869198737817065 13.869198737817065 xlo xhi
-14.096990603983867 14.096990603983867 ylo yhi
-13.830803868036417 13.830803868036417 zlo zhi

Masses

1 55.847
2 1.008
3 1.008

Atoms # atomic

1536 1 -12.34547456845978 -11.711270254094801 -10.205124139730424 0 0 0
1719 1 -13.04445784262397 -11.257722262710727 -12.498429663764874 0 0 0
1535 1 -10.474858379173918 -10.1986189756959 -9.623835426886604 0 0 0
1696 1 -10.590384036954921 -12.123229451493158 -11.920103966469451 0 0 0
1697 1 -12.94855795185921 -9.45813693516932 -10.526222067625579 0 0 0
7 1 -8.707426993782477 -12.618756193649391 -13.545592625686712 0 0 1
1545 1 -9.912206007895922 -12.59806689376486 -9.651383033353843 0 0 0
1676 1 -11.10262927988848 -9.724346651316587 -12.097580876661471 0 0 0
1715 1 -8.663979457866432 -10.725213767861646 -11.418893373183618 0 0 0
1731 1 -12.479638688912157 -13.577324242941142 -12.358994958328925 0 0 0
1699 1 -13.666385918176863 -8.858787345710411 -12.787642272679557 0 0 0
4 1 -9.221510938280447 -10.177397634158742 -13.77774729392158 0 0 1
1513 1 -8.502410477470747 -8.565847747542307 -9.220152828986176 0 0 0
1832 1 -11.8870445794025 13.95646586990283 -10.087690800548385 1 -1 0
1533 1 -7.916161203465614 -10.9189877834578 -9.038268383135566 0 0 0
1534 1 -8.056277877049588 -13.069983679061973 -11.088229820717272 0 0 0
1530 1 -3.592728163528932 -12.394463376191245 -9.70024035393314 0 0 0
1714 1 -6.305056878956999 -13.517494168243106 -12.750222695734207 0 0 0
1712 1 -4.258718466483353 -12.022815028773056 -12.050097424495519 0 0 0
1713 1 -6.127117616024321 -11.496630904070436 -10.574914301756868 0 0 0
1694 1 -6.69117446271428 -11.086398847285922 -12.93814099810332 0 0 0
1512 1 -6.727346312875558 -9.217381071697531 -10.620553875353952 0 0 0
1510 1 -4.109387341805887 -9.994154882275247 -9.894543838360283 0 0 0
1692 1 -4.854615209107093 -9.75176452212796 -12.206284117708993 0 0 0
1532 1 -7.42738177082499 -13.312459612028054 -8.846739947628583 0 0 0
1728 1 -5.511218312678496 -13.813202824945982 -10.41648454761402 0 0 0
1821 1 -7.3774333951013995 -8.756930390151854 -12.991495038094266 0 0 0
1831 1 -2.8599637074027946 -10.159792512946563 -13.809117453240214 0 0 0
1711 1 -2.3233282405655764 -10.588054864708921 -11.426875067385083 0 0 0
1840 1 -2.3579758088674367 -12.45435899835354 -13.539531778958949 0 0 0
1710 1 0.24301070269018332 -13.38601268068552 -12.81546587971462 0 0 0
1727 1 -1.6506348499155141 -12.872555233659334 -11.395626485132532 0 0 0
1709 1 0.1750875639761258 -11.308810737769925 -10.6329653294605 0 0 0
1830 1 -0.34722011238916295 -10.946499756028256 -13.085172117497825 0 0 0
1829 1 2.154286151160946 -11.856399363682165 -12.153802074458913 0 0 0
1529 1 -1.737886941760605 -10.91357769296966 -9.12366027533536 0 0 0
1707 1 2.031152151964429 -9.910378166600097 -9.825055639686395 0 0 0
1688 1 1.5297707211919604 -9.496727927024157 -12.353821588797233 0 0 0
1508 1 -0.4131684893965861 -9.081676822633494 -10.682278930463692 0 0 0
1528 1 -1.1128262912370221 -13.29792221236017 -8.999926422290027 0 0 0
1726 1 0.7155919534962898 -13.624086048293414 -10.446261845510875 0 0 0
1526 1 2.5717440928553508 -12.260926603376422 -9.853840286556316 0 0 0
1506 1 0.17039998880746765 -9.37997500741904 -8.385031962665533 0 0 0
1690 1 -0.8500396816970763 -8.719355266336187 -13.247683966498842 0 0 0
1725 1 4.516916367197009 -12.638666010747661 -11.378443921004926 0 0 0
1826 1 6.469062058341432 -13.020881537261102 -12.779594968236657 0 0 0
1705 1 3.95439660806926 -10.14482815953226 -11.347262147040137 0 0 0
1827 1 5.826409366753694 -10.730510640358137 -12.85292093458861 0 0 0
1522 1 4.641275076126814 -10.826353032363787 -9.10997046460821 0 0 0
1684 1 6.499500574786431 -11.215922403252343 -10.644267330831806 0 0 0
1523 1 6.6380759769339335 -9.344362109343532 -8.564867856948258 0 0 0
1815 1 7.7390209970798765 -9.123861997412792 -12.50188647271791 0 0 0
1724 1 5.217199801524767 -13.229691137471178 -9.087649495496963 0 0 0
1723 1 7.123197281621028 -11.669579529842963 -8.448012720385154 0 0 0
1704 1 7.100438524971253 -13.52396350062424 -10.522558097130503 0 0 0
1825 1 8.36074916827408 -11.426784643315631 -12.286092775300927 0 0 0
1686 1 5.845480471991895 -8.816692373451817 -10.757538565920001 0 0 0
1703 1 8.384492415515059 -9.567853036076164 -10.245796558058471 0 0 0
1828 1 3.9455096203959954 -12.130103809570437 -13.686137397496092 0 0 0
164 1 3.442881384529585 -9.756442594421836 -13.767828255569862 0 0 1
1539 1 7.6458724677481555 14.045091267190324 -8.280378076194719 0 -1 0
1721 1 -13.60974740573324 -13.759455883672537 -8.465652762468242 1 0 0
1717 1 13.409620042763482 -11.386278124748054 -8.692022695204786 -1 0 0
1702 1 9.040025354342283 -11.966014066312265 -9.847084021427229 0 0 0
1722 1 11.385696629314161 -12.899336038431752 -9.22797749442581 0 0 0
1833 1 10.789700729606263 -12.25493528928141 -11.626938246104304 0 0 0
1822 1 12.80665759636194 -10.749551192990845 -11.02068878661872 0 0 0
1823 1 10.327992613061976 -9.938205091048303 -11.84755066844701 0 0 0
1701 1 10.956552266665398 -10.468875215483855 -9.416823396734749 0 0 0
1811 1 12.106899161406382 -10.288988886636858 -13.319159369193397 0 0 0
1681 1 12.76413503102394 -9.015469426953185 -8.848884764355388 0 0 0
294 1 12.713174114804769 -12.553041583423292 -13.185069251561613 0 0 1
1720 1 13.309576561084494 -13.06230664847728 -10.817335352983367 0 0 0
1824 1 8.95352935954475 -13.754129430894968 -12.180575623944755 0 0 0
1680 1 12.133935227800425 -8.442908389621532 -11.11172899203963 0 0 0
1695 1 -9.14737997944752 -8.20586374154082 -11.487710507779818 0 0 0
1515 1 -11.056437832704257 -7.7848731784741965 -9.879208334864096 0 0 0
1514 1 -9.176167939972078 -6.346852552411671 -9.246984522109736 0 0 0
1494 1 -9.812212231042942 -5.859930359203311 -11.691896470725464 0 0 0
1677 1 -11.64516440537381 -7.372544281948026 -12.33749944873915 0 0 0
1476 1 -11.698893939522108 -5.510147272517274 -10.010847655692839 0 0 0
1474 1 -9.780159035240521 -4.053750015016689 -9.470306964058587 0 0 0
1657 1 -10.324857639428652 -3.4193309589716296 -11.869250370378253 0 0 0
1496 1 -13.623812289636145 -7.139119068616821 -10.727402585023862 0 0 0
1679 1 -12.29785650770479 -5.064006186363601 -12.315817653136504 0 0 0
1655 1 -8.445082756824352 -4.01744092644306 -13.43958256453736 0 0 0
1641 1 -13.495881836976201 -5.0886196806050865 -8.403690737760847 1 0 0
1456 1 -12.312283702304727 -3.1484333949068226 -10.327946960340013 0 0 0
1516 1 -12.958192051190574 -7.573578997232111 -8.399297292360606 0 0 0
14 1 -9.882134021045161 -7.793645267761002 -13.791952021956742 0 0 1
1691 1 -2.888071838492589 -8.239226527398293 -11.651329088414398 0 0 0
1674 1 -7.972640162462483 -6.404788982240872 -13.24604251575349 0 0 0
1492 1 -7.213246661419784 -6.797835450977175 -10.967536493189831 0 0 0
1675 1 -7.875304470568207 -4.348887537346641 -11.077839968276926 0 0 0
1672 1 -3.593648312382326 -5.789910970745765 -11.773082287376642 0 0 0
1673 1 -4.732270127369885 -7.6089357213848 -10.063016942147758 0 0 0
1693 1 -5.298084211135983 -7.342594717144553 -12.513444416732334 0 0 0
1654 1 -5.334958723291811 -5.287299675873889 -10.24798659238808 0 0 0
1810 1 -5.925343750009335 -4.969077346602386 -12.640804197564526 0 0 0
1470 1 -3.506449757557535 -3.7933035408065745 -9.5204846835132 0 0 0
1653 1 -4.10692402845992 -3.452476875474577 -11.962730849447107 0 0 0
1493 1 -7.164071243459661 -4.752000756590576 -8.790644371127172 0 0 0
1511 1 -6.552879660509015 -7.087345259114306 -8.552954709095074 0 0 0
1490 1 -2.9233160283696833 -6.269692031360782 -9.522569747115812 0 0 0
1509 1 -2.347759762053112 -8.548805259910544 -9.381000515824066 0 0 0
1670 1 -1.0153103500372005 -6.640621886603717 -10.952299132402747 0 0 0
1669 1 0.8266918052812624 -5.206565377392302 -10.346206960518845 0 0 0
1689 1 1.5940412767010805 -7.582971636494825 -10.03646575259681 0 0 0
1819 1 0.8993588351211219 -7.26453971441308 -12.390629465246642 0 0 0
1808 1 0.3066576940352945 -4.904053828114542 -12.629755590756645 0 0 0
1487 1 -1.0595605100063246 -4.7044500592546665 -8.923804602779281 0 0 0
1671 1 -1.5235065889173072 -4.200853787970042 -11.305684345301891 0 0 0
1820 1 -1.6258405965969764 -6.277945435012428 -13.350154705402682 0 0 0
1809 1 -2.341358633111911 -3.9009464591966054 -13.628633293933909 0 0 0
1488 1 -0.4833419486952 -6.978162956073511 -8.590324765508669 0 0 0
1668 1 2.7525640314796718 -5.546147956136837 -11.798633731969264 0 0 0
1649 1 2.1457959171747376 -3.1896164176607584 -12.072063083465132 0 0 0
1667 1 2.7142033765645195 -3.609379298583942 -9.707884518155492 0 0 0
1504 1 4.020147838640785 -8.443532976626338 -9.322825396107405 0 0 0
1817 1 5.2993271485170546 -8.408144488625895 -13.226104868003452 0 0 0
1818 1 3.3521921773318937 -7.846029615254746 -11.6945871890588 0 0 0
1687 1 3.3458535961105333 -6.055696550909399 -9.456403013558884 0 0 0
1685 1 5.130204253282674 -6.317513857661415 -10.94019424697165 0 0 0
1664 1 7.18972724664955 -4.930211299886524 -10.508257588850427 0 0 0
1804 1 7.120613478874716 -6.811216633441341 -12.466214886776697 0 0 0
1805 1 6.549670774180065 -4.524119092005783 -12.824388876119185 0 0 0
1484 1 6.05855446723206 -6.997661626409936 -8.76625324061385 0 0 0
1665 1 5.29654843429984 -4.52892566972613 -8.840953750122042 0 0 0
1666 1 4.610305012988881 -3.956628702627528 -11.325520821159568 0 0 0
1816 1 7.980169206125158 -7.248445129043863 -10.135368911923289 0 0 0
1806 1 4.663954417493667 -6.00347160473334 -13.380397818583766 0 0 0
1807 1 4.172185691916493 -3.489312540779867 -13.577056432980267 0 0 0
1462 1 7.398052270834956 -3.0419649217536016 -8.34831249844251 0 0 0
1683 1 10.160371047115273 -8.053580846800495 -9.543409679191079 0 0 0
1682 1 9.59922971280459 -7.589929357257716 -11.962114185117642 0 0 0
1678 1 13.561582278484355 -4.726202109123394 -10.849247557003636 -1 0 0
1800 1 13.435011293796705 -6.262148171252495 -13.02104615307428 0 0 0
1662 1 9.792529603688791 -5.692687331234918 -9.665592148573317 0 0 0
1801 1 11.598369171724542 -6.072053704353294 -11.410356645742647 0 0 0
1814 1 9.064202615210625 -5.119033796958721 -12.108805599283851 0 0 0
1660 1 12.361410037444557 -6.435664623090995 -9.032985354850403 0 0 0
1661 1 11.707446342882314 -4.197651271293417 -9.248577957783665 0 0 0
1789 1 12.924153816421956 -4.060088329447774 -13.136313568084091 0 0 0
1803 1 11.046304517546826 -3.738559296030953 -11.524323193005563 0 0 0
1663 1 9.087523468739125 -3.471718716889761 -9.989876176120136 0 0 0
1812 1 11.603991073433551 -7.81414435919319 -13.444542780191723 0 0 0
1802 1 10.90244931773773 -5.412606607082072 -13.729626704210165 0 0 0
1454 1 -10.509026629204637 -1.5685936204221118 -9.797709541248011 0 0 0
1658 1 -11.036491668991046 -0.993520934181328 -12.137943717896093 0 0 0
1638 1 -9.015338156158016 0.38560586953902387 -11.540326626761821 0 0 0
1639 1 -10.97710598913445 0.8313578114862548 -9.980592467453517 0 0 0
1621 1 -11.53169233459735 1.3303493367329846 -12.289412322911264 0 0 0
1779 1 -12.849590230652211 -0.6908564195169635 -10.500718652067812 1 0 0
1603 1 -13.486667402729967 1.648954496423368 -10.650089059593348 1 0 0
1640 1 -12.870891546217065 -2.629032533624768 -12.664224819617257 0 0 0
1434 1 -9.120506903259088 2.2688177635302527 -9.383816088929205 0 0 0
1767 1 -13.488383237055645 -0.22931970291393178 -12.887490328438084 1 0 0
1656 1 -8.471945873603815 -1.9851880431652305 -11.31614823719677 0 0 0
38 1 -9.247073429073929 -1.4763885023382919 -13.604647142099184 0 0 1
1452 1 -8.475997054640963 -0.0887971062660764 -9.204314526360665 0 0 0
97 1 -9.750755227875128 0.8572575744046542 13.797002810580477 0 0 0
1619 1 -9.602615042835339 2.6908790607385473 -11.795219017822093 0 0 0
1635 1 -5.9292733225375835 -2.842646848586531 -10.398079436082993 0 0 0
1472 1 -7.7807409491341675 -2.500762087114037 -8.848664951853223 0 0 0
1450 1 -4.032041288232211 -1.3883635872559346 -9.777797011248936 0 0 0
1799 1 -6.573862106913692 -2.471763685411979 -12.712366049623332 0 0 0
1634 1 -4.646595249447049 -1.0572534141508285 -12.130094890180391 0 0 0
1636 1 -7.186520884562942 -0.23385367209558083 -13.071732906098289 0 0 0
1432 1 -4.540756178735393 0.8998587935833555 -10.102234754342359 0 0 0
1637 1 -6.557487565709194 -0.41103554962139555 -10.569105765047414 0 0 0
1788 1 -5.238598671194861 1.3913089989492775 -12.337070077062435 0 0 0
1618 1 -7.138425275959143 2.006810814668457 -10.860837330275315 0 0 0
1617 1 -7.613520053952543 2.2550694147817456 -13.230041264289184 0 0 0
1451 1 -6.581102117384845 1.5038922922740152 -8.585228278333402 0 0 0
1471 1 -5.888021034275391 -0.9674741237975706 -8.356554055626567 0 0 0
1798 1 -2.909944547222924 -1.514695243163219 -13.767701607753631 0 0 0
1633 1 -2.697587558416222 0.5179324339370766 -11.601270983223001 0 0 0
1428 1 -2.715506809782635 2.5345306449482354 -9.298777544693635 0 0 0
1650 1 0.2872209764975473 -2.7792911596825807 -10.489618942869255 0 0 0
1468 1 -1.5761547620381773 -2.2410788562714394 -9.052698011024177 0 0 0
1652 1 -2.3240191920172357 -1.8297665445166835 -11.381480813061208 0 0 0
1651 1 -0.23510012399888325 -2.400679215282226 -12.80574354940207 0 0 0
1797 1 1.5987386238061703 -0.8184521756555654 -12.205180249183496 0 0 0
1632 1 -0.7250672690389024 0.016300655046059376 -12.93251782397813 0 0 0
1630 1 -0.36202050702729593 -0.3956923041190539 -10.65311444907232 0 0 0
1448 1 -2.197125146369471 0.19319792796864732 -9.196487389343046 0 0 0
1629 1 1.6532769133882432 1.1727306372469481 -10.032001260093345 0 0 0
1786 1 1.1276508108851093 1.6500106697396788 -12.398845452791058 0 0 0
1648 1 2.152288314942467 -1.298707169667912 -9.913946846944697 0 0 0
1631 1 -0.9072842870086983 2.0188199943379725 -10.977215169677278 0 0 0
1612 1 -0.22301068521278644 1.7311676764825954 -8.519367297785305 0 0 0
1787 1 -1.4192849609887084 2.3477022487343557 -13.2310426758479 0 0 0
1446 1 0.1509828768399757 -0.722199903929452 -8.271510249953835 0 0 0
1793 1 8.509444750216925 -2.8223246346186635 -12.385083654222592 0 0 0
1645 1 6.675551611129464 -2.4863329379805315 -10.656074707452039 0 0 0
1795 1 5.949236879956391 -1.92898340781365 -12.936219025039852 0 0 0
1464 1 4.692966874712628 -2.1570032203400533 -9.059633906885885 0 0 0
1796 1 3.5833070921750654 0.7106784541528235 -11.504349253480079 0 0 0
1647 1 4.174212088153329 -1.6040373539943058 -11.394368157458919 0 0 0
1794 1 6.102825599335034 -0.03818707845169911 -10.827141782496334 0 0 0
1628 1 4.06584786329644 0.2602965309607388 -9.110621518758283 0 0 0
1627 1 6.100771213866828 1.6349675386642488 -8.746615067190863 0 0 0
1771 1 7.33100810272575 1.9323880893646415 -12.667218001394952 0 0 0
1784 1 5.517106578694573 0.3383265674203084 -13.177117940943903 0 0 0
1646 1 6.682656870795473 -0.7412261910555262 -8.471880044005706 0 0 0
1783 1 5.302584706587066 2.3257292734646793 -10.994268390321363 0 0 0
1626 1 7.954349357187304 1.2897742800600582 -10.238632155843092 0 0 0
1782 1 7.859624621686727 -0.3826733463972687 -12.412453486387465 0 0 0
383 1 3.359091202882233 -1.2711113491902495 -13.796494676387367 0 0 1
1773 1 4.772985931687231 2.5721419568574024 -13.271421078726972 0 0 0
1622 1 13.642071194402366 -2.7373694258228376 -8.665800315823613 0 0 0
1792 1 8.604892907762977 -1.0959369854767793 -10.066710245819987 0 0 0
1790 1 13.00312042983797 -2.198023591814982 -11.022466890634742 0 0 0
1778 1 12.270393107871914 -1.666639801173499 -13.332867584399784 0 0 0
1643 1 11.062707975483033 -1.8952511604607114 -9.382429352342012 0 0 0
1791 1 10.276333693334813 -1.351802129842877 -11.754043491778656 0 0 0
1624 1 10.48467623185062 0.47281341735427773 -9.699695523054794 0 0 0
1780 1 12.3278189160938 0.00314709063830243 -11.287633558735976 0 0 0
1781 1 9.817865725290243 1.2165641149303834 -11.984909769997227 0 0 0
1623 1 12.370759684457617 1.8575757875623218 -9.055741495403886 0 0 0
1642 1 12.952819687811292 -0.40837495674939106 -8.808899326013115 0 0 0
1845 1 11.735265841886552 0.6882617360918015 -13.496236003027898 0 0 0
1756 1 13.68533323843679 2.0713942472687865 -12.94910759602081 0 0 0
1769 1 11.901852804013252 2.4187260271959605 -11.440594390286716 0 0 0
1620 1 -11.475965002273883 3.0865566964650792 -10.217657575541661 0 0 0
1602 1 -12.044286930140952 3.669286944579367 -12.421903613342398 0 0 0
1414 1 -9.71676065663047 4.639517954147861 -9.497859621769447 0 0 0
1600 1 -10.08160664768738 5.089568785763655 -11.914922401688306 0 0 0
1601 1 -12.021431819038126 5.373214187957453 -10.20281604164073 0 0 0
1583 1 -12.657081339704188 6.138060056275881 -12.620871518051228 0 0 0
1394 1 -10.164631660132855 6.906861367228183 -9.631392102549285 0 0 0
1581 1 -10.695207435169902 7.478334098136285 -11.992392591402634 0 0 0
1582 1 -12.504269564976191 7.719122170811653 -10.431291863638245 0 0 0
317 1 -8.885873557233785 7.102234522728763 -13.505612487747472 0 0 1
1416 1 -13.418770977938903 3.3183829685193107 -8.544177212520921 0 0 0
331 1 -8.303621327410688 4.681790992716897 -13.412699173325407 0 0 1
1580 1 -8.292026073184543 6.540405090689413 -11.160576827061725 0 0 0
1615 1 -3.23298028371568 2.8085499556372486 -11.733968206036963 0 0 0
1616 1 -5.168239252271322 3.348677196468147 -10.205883310867119 0 0 0
1431 1 -7.030917924769745 3.856578773218155 -8.679471565535575 0 0 0
1599 1 -7.744042117141525 4.301455685898967 -11.058712186101447 0 0 0
1596 1 -3.820323674436544 5.236720099778422 -11.978385224160068 0 0 0
1598 1 -6.340320866983676 6.165986939169164 -12.789642126891264 0 0 0
1777 1 -5.742482727380928 3.757263574193411 -12.65359945613582 0 0 0
1597 1 -5.667618813456837 5.719037111768932 -10.536557432865964 0 0 0
1595 1 -3.836651313508188 7.215712280355115 -9.807159078729041 0 0 0
1412 1 -7.710341982717388 6.189505492303427 -8.81759328978982 0 0 0
1614 1 -3.3937372418174654 4.872251326270577 -9.640385171355181 0 0 0
1577 1 -4.534041708924839 7.546938404555528 -12.202735172292135 0 0 0
1578 1 -6.354911719086744 8.052455640686913 -10.57912816385898 0 0 0
1411 1 -5.808769071392955 7.699084143198844 -8.203998248800751 0 0 0
1765 1 -2.6497299925176048 7.212248414151004 -13.61202645578482 0 0 0
1613 1 -1.4582980172252622 4.378004344129524 -11.134409308435572 0 0 0
1592 1 0.5116706595275531 5.97162448477947 -10.461003243810408 0 0 0
1611 1 0.9942283993364995 3.5968213997960117 -10.331565398636977 0 0 0
1775 1 0.5160471505784177 4.026956693587072 -12.62773372450141 0 0 0
1764 1 -0.10682300166921976 6.289069225617306 -12.823628086196402 0 0 0
1388 1 -1.2898569671354991 6.305289104523295 -8.766326528627749 0 0 0
1594 1 -2.1575885689093397 6.680809628730598 -11.31209415067222 0 0 0
1408 1 -0.8264462133238517 4.004851210065189 -8.81648926602331 0 0 0
1774 1 2.4811278102428105 5.50980913609761 -11.894928157592723 0 0 0
1776 1 -1.92867244253088 4.836492559897836 -13.524994876525227 0 0 0
1591 1 2.385848972135438 7.392051102928855 -9.81925053548012 0 0 0
1752 1 1.7099106878872536 7.638687442475858 -12.333024348293641 0 0 0
1387 1 -0.0844996466558321 8.207497100004423 -10.606930644352314 0 0 0
1593 1 0.3974313774066385 7.847711868655063 -8.241566654885208 0 0 0
1609 1 3.514619303008857 2.7532369203437117 -9.460208976831156 0 0 0
1785 1 2.944965143993006 3.102522079314168 -11.71496286499327 0 0 0
1610 1 2.9015016324763323 4.962278225882885 -9.626844673522719 0 0 0
1590 1 4.747078517613765 6.445995500930211 -9.084651938897686 0 0 0
1608 1 5.595796914766435 4.011850106592847 -8.905114654884002 0 0 0
1772 1 4.898868235331182 4.6722615194538815 -11.137677381201694 0 0 0
1588 1 6.816713092480519 6.052984584178775 -10.637131855521083 0 0 0
1607 1 7.353603544544622 3.668327394198462 -10.512410545309944 0 0 0
1760 1 6.741830889639335 4.32275987510811 -12.860570433313868 0 0 0
1762 1 6.1743878228990745 6.724235094558084 -13.093976205132254 0 0 0
1763 1 4.432057446624231 7.082318473784129 -11.414828489012848 0 0 0
1589 1 6.799670780826883 7.9243239089580495 -8.448737715799574 0 0 0
511 1 4.200591051686967 4.916787785573865 -13.476890046079184 0 0 1
645 1 3.567373463955107 7.329196800393975 -13.586406179745737 0 0 1
1606 1 7.481819028926889 5.615865116126207 -8.473853855983933 0 0 0
1748 1 8.21200660315052 8.346227627774491 -12.511480513444557 0 0 0
1396 1 13.627106836412246 5.73956265058723 -8.56469556023551 -1 0 0
1759 1 8.67847200289534 5.835320227686649 -12.450734030990589 0 0 0
1584 1 13.79818336175316 3.9904533870294845 -10.879914262272258 0 0 0
1569 1 8.705797283769371 7.596141228661137 -10.084952087029565 0 0 0
1605 1 9.893515128042452 2.784545691799229 -9.815458562800188 0 0 0
1770 1 9.191371471905832 3.442902755362981 -12.1877399685345 0 0 0
1586 1 9.307766511408467 5.276603225208747 -9.923502030784524 0 0 0
1768 1 11.158380407353334 4.857525167370854 -11.652500221327198 0 0 0
1757 1 13.15972521996121 6.399909049772644 -10.93637152508072 0 0 0
1843 1 13.140774424576318 4.648761145099078 -13.02020130773331 0 0 0
1604 1 11.722050795956644 4.279140760866019 -9.392915317229939 0 0 0
1585 1 11.337172022699548 6.5652983185572165 -9.322042698960349 0 0 0
1746 1 10.579869895272516 7.205957371996325 -11.702490334859093 0 0 0
1842 1 12.581328589103318 7.038776860815533 -13.298025115116111 0 0 0
1378 1 13.173637582983083 8.24614302309544 -8.70487227040189 0 0 0
1744 1 -13.274601918109452 8.503325106111072 -12.719184189039336 1 0 0
1374 1 -10.794731653053518 9.256400928702485 -9.779251782110656 0 0 0
1562 1 -11.324589591111778 9.840847368072344 -12.03332587650604 0 0 0
1376 1 -13.409428020113126 10.0749163851621 -10.419041710626322 0 0 0
1563 1 -11.920842842207056 12.190352776341827 -12.18826416987308 0 0 0
1561 1 -8.754029341122692 8.907979381915839 -11.262673501742096 0 0 0
1544 1 -11.208207348815531 11.640086883880214 -9.846016470822429 0 -1 0
1373 1 -9.305898019561655 13.186096538955175 -9.227740245433939 0 0 0
1730 1 -9.389350886532796 11.347598105529434 -11.498214193191432 0 -1 0
1372 1 -8.662023721246026 10.812837014926968 -9.317624001028687 0 0 0
1716 1 -10.097481000039783 13.785190357952947 -11.703736088397244 0 -1 0
1358 1 -13.073650972555486 12.05176021731704 -8.35534917665436 1 0 0
303 1 -9.459272242896958 9.492009784584583 -13.567153469414626 0 0 1
1546 1 -13.810935809865505 10.806006490050594 -12.728846237985717 1 0 0
1547 1 -13.713688775263472 12.616167306774871 -10.588333183445414 1 0 0
1392 1 -8.330924937678459 8.427837745529123 -9.00580734642827 0 0 0
593 1 -8.272139661837178 13.141341235079159 -13.210005332397959 0 0 1
1579 1 -7.005214472143206 8.582709670079199 -12.814963925513904 0 0 0
1576 1 -4.534634019980581 9.62825988068772 -9.970379795708801 0 0 0
1560 1 -7.452872478583454 10.921138800336793 -13.13061092974413 0 0 0
1729 1 -7.537839945452141 12.786871409016898 -11.004683550440765 0 -1 0
1559 1 -6.784005999442814 10.466931252884917 -10.852604243820327 0 0 0
1755 1 -4.996146768451576 10.024201435500517 -12.366085080953205 0 0 0
1370 1 -4.957570601452309 12.011200956816117 -10.12074109968836 0 0 0
1558 1 -3.123223736587409 11.444262723496143 -11.701171830435312 0 0 0
1743 1 -5.5249825871730565 12.3299137023445 -12.54627060517577 0 0 0
1557 1 -2.9686136476359035 13.44280416792481 -9.586900168721215 0 0 0
1371 1 -6.929923714476969 12.450891061802524 -8.591513325798392 0 0 0
1391 1 -6.3683700420056795 10.076397443072954 -8.372038353026424 0 0 0
485 1 -3.099100504710508 9.626925669243361 -13.736374408471526 0 0 1
1178 1 -2.4478950753982858 11.101226692114308 -9.345386847076075 0 0 0
1754 1 -2.432404886785264 9.170949775499109 -11.450897980283756 0 0 0
1368 1 -1.7890247478210117 8.73040863117897 -9.051303611622448 0 0 0
1575 1 -0.6435605441590226 8.566054585579055 -12.982878617155977 0 0 0
1556 1 -0.5511419154504846 10.602578501336785 -10.814458978773736 0 0 0
1742 1 -1.2368725498475683 10.919639202977082 -13.164781347470742 0 0 0
1573 1 1.8715167661849517 9.762729923620677 -10.082003378693791 0 0 0
1572 1 1.121947529291786 12.196330605651431 -10.146438566756363 0 0 0
1753 1 1.2021764379693316 10.045272640551863 -12.398853854456 0 0 0
1741 1 0.6686765362999143 12.4368079502096 -12.697260414353249 0 0 0
1555 1 -1.140714713004357 12.901998173143449 -11.137212313750108 0 0 0
1366 1 -0.5724675279651397 12.652488976164614 -8.615734926823155 0 0 0
1839 1 -1.771444163976339 13.244215579619693 -13.380215146178552 0 -1 0
1574 1 0.05791508440593418 10.277619361145264 -8.481564545046847 0 0 0
1739 1 3.211101345389153 11.643406213388628 -11.725380511767408 0 0 0
1761 1 6.296860759778781 8.492731651779769 -10.815127767111932 0 0 0
1750 1 5.600122672205924 9.062023141604117 -13.11195273835507 0 0 0
1571 1 4.46684076710347 8.818353040132946 -9.245196950627264 0 0 0
1751 1 3.6231131730053896 9.29072544286545 -11.627599200984761 0 0 0
1552 1 3.791734425903936 11.239025768134235 -9.372806814542063 0 0 0
1749 1 5.6454925065599895 10.796275984999829 -10.969751939300295 0 0 0
1736 1 7.549029927066449 10.51330492218444 -12.51779188667453 0 0 0
1551 1 5.691553542105847 12.700560020976381 -8.844123974350165 0 0 0
1836 1 7.143007297056013 12.968009620807562 -12.829051368740272 0 -1 0
1738 1 5.063328962820393 11.44660113599849 -13.22304317381766 0 0 0
1706 1 5.208039235254077 13.10229662085944 -11.142703603829808 0 -1 0
1737 1 7.652921979577396 12.228069224381008 -10.361827171476534 0 0 0
1570 1 6.456636280477092 10.366719336274388 -8.646366160175994 0 0 0
1550 1 8.207296603641385 9.900052986789055 -10.234497262053212 0 0 0
1554 1 3.297540932281052 13.554843633400791 -9.687434401440438 0 0 0
1837 1 4.5570447363532125 13.71661352488159 -13.423385303437254 0 -1 0
1565 1 12.541017600166288 8.695353193859882 -11.10418390014415 0 0 0
1841 1 13.327732363015585 13.208597672730987 -12.922449850466936 0 0 0
1567 1 10.72027733336251 8.846150960673684 -9.39180612616046 0 0 0
1548 1 10.10041116482483 11.316291572823433 -9.63740313359008 0 0 0
1745 1 12.034725031510515 11.167426740605242 -11.108985798541823 0 0 0
1747 1 10.098193761959955 9.631907318956168 -11.60176900222984 0 0 0
1735 1 9.389626772742496 11.953377281563784 -11.901184752774398 0 0 0
1566 1 12.511490724176983 10.482752861468954 -8.772570921874317 0 0 0
1537 1 12.151035782877422 12.971573625797655 -9.035290264258048 0 -1 0
1733 1 11.438128246808699 13.50825746735128 -11.397134247919459 0 0 0
1734 1 12.02039714218196 9.413598501119127 -13.337608376538716 0 0 0
1834 1 11.390521063442268 11.750299506345604 -13.56474659273599 0 -1 0
1835 1 9.611335155810067 13.843170413756384 -9.843369812073549 0 -1 0
605 1 -3.651027061437979 13.827357572523757 -11.86945142047994 0 0 1
1708 1 2.608710110956231 13.962920219536079 -12.009327446855462 0 -1 0
1326 1 -12.309712139467836 -9.920492410721415 -8.128720825799235 0 0 0
1346 1 -11.546441811196443 -12.274850796803909 -7.903257046766145 0 0 0
1343 1 -9.167621526164314 -10.852149515153151 -5.101425982191637 0 0 0
1156 1 -10.977876506916768 -11.507291724759664 -3.366235383539239 0 0 0
1327 1 -13.35562960728694 -10.489542697922568 -4.210481206484369 1 0 0
1324 1 -9.683811147220382 -10.419669500554743 -7.2900837810974854 0 0 0
1325 1 -11.466951832800937 -10.460338531812127 -5.7117609961003435 0 0 0
1136 1 -11.575123750106664 -8.888967090410704 -3.682977777397223 0 0 0
1347 1 -12.994923810374848 -12.861603973111471 -3.9964725287939604 1 0 0
1344 1 -9.301537943763684 -12.948819176057265 -7.306892541398319 0 0 0
1155 1 -8.725495784920888 -13.317026493995213 -4.891398218341093 0 0 0
1517 1 -13.517357517281269 -12.074424297184137 -6.333100393723548 1 0 0
1345 1 -11.074974798658317 -12.947084760177518 -5.534131731946303 0 0 0
1165 1 -9.422289974038037 -9.058633855871228 -2.9693778935423634 0 0 0
1006 1 -8.817499245440507 -11.341615776441424 -2.6868169328325795 0 1 0
1323 1 -9.68221754391136 -8.618930431052018 -5.382118735811025 0 0 0
1166 1 -10.265096496019453 -13.891051640516443 -3.1288230655424947 0 0 0
1531 1 -6.0294771898915975 -9.575931156683907 -8.360114773808341 0 0 0
1543 1 -5.445421053307394 -11.823768159184446 -8.21178750409894 0 0 0
1153 1 -6.775615423993115 -11.72874223888008 -4.341483375136146 0 0 0
1341 1 -5.501766865165564 -9.837416280779916 -6.010697836973217 0 0 0
1342 1 -7.329841104441887 -11.30266037363877 -6.675977714756956 0 0 0
1132 1 -4.968845007107795 -10.203329361029258 -3.5882843630786248 0 0 0
1152 1 -4.299357386346873 -12.492645191067874 -3.5903925654882087 0 0 0
1134 1 -7.518196616347423 -9.363176492449497 -4.590627116084633 0 0 0
1322 1 -7.7468189961963265 -8.915035956138794 -6.940916719729063 0 0 0
1340 1 -3.6023332549091567 -10.402901449335483 -7.540914078389739 0 0 0
1354 1 -4.8071870265225165 -12.194384832019368 -5.767684468080089 0 0 0
1542 1 -2.966479118214009 -12.700507039413699 -7.352460997553611 0 0 0
1149 1 -2.935660085972069 -8.703075537763615 -2.925008560681569 0 0 0
1339 1 -3.0268263944636313 -10.745951849297581 -5.115309831785423 0 0 0
1355 1 -6.7730844828660155 -13.6564118955661 -6.471901669982009 0 0 0
1024 1 -7.929400522335226 -13.525645596846358 -2.465597555118654 0 1 0
1181 1 -6.146117288819888 14.093425751924391 -4.059295605266993 0 0 0
1527 1 0.7484972424359881 -11.961624684386413 -8.315993878569511 0 0 0
1151 1 -2.4479488861952188 -13.118991860805998 -5.012006839582639 0 0 0
1337 1 -1.0916929033513831 -9.288447410267967 -4.488220270799614 0 0 0
1338 1 -0.9486221092597731 -11.316565357591365 -6.739365268420617 0 0 0
1352 1 -0.5637598826318602 -11.7177710983373 -4.383243890103403 0 0 0
1336 1 0.8108516910762535 -9.79796013994363 -6.056412782375664 0 0 0
1175 1 1.3293760202122495 -10.267160877740215 -3.599281217599204 0 1 0
1318 1 -1.6839264787616255 -9.008926008461653 -6.881050748827325 0 0 0
1365 1 1.4203849688048376 -12.137305820128633 -5.871662174455309 0 1 0
1195 1 2.0749974591214517 -12.634074220081343 -3.4934822405456867 0 1 0
1367 1 -0.6314242903637393 -13.695451707537215 -6.446723411011025 0 1 0
1525 1 2.7087306788074628 -10.329055337372436 -7.634673575351654 0 0 0
1177 1 -2.4706271575178214 -11.125507211772337 -2.8095831207896023 0 1 0
1021 1 -1.9120754906402233 -13.571730458779635 -2.615686065805294 0 1 0