LAMMPS data file via write_data, version 2 Aug 2023, timestep = 0, units = metal

1867 atoms
3 atom types

-14.222908811409107 14.222908811409107 xlo xhi
-13.911778255349759 13.911778255349759 ylo yhi
-13.872382328683555 13.872382328683555 zlo zhi

Masses

1 55.847
2 1.008
3 1.008

Atoms # atomic

1860 1 -11.902049286266331 -11.144520594780609 -10.463447679889267 0 0 0
1830 1 -10.565210851138668 -9.593614698695967 -11.84977090000318 0 0 0
100 1 -11.500314090842494 -12.094919780533516 -12.595766405157166 0 0 1
1864 1 -12.81763665675934 -10.173167829138551 -12.8727862953831 0 0 0
1651 1 -13.369871780728916 -9.132548556942119 -10.725716554789681 1 0 0
1854 1 -9.23120990092729 -11.623144183441477 -11.41793169855656 0 0 0
24 1 -13.616919272160803 -12.78403050598441 -13.431779246585634 0 0 1
1855 1 -8.764232195267208 -12.758747438182303 -13.586456844321361 0 0 0
1853 1 -10.614442658826976 -13.244600752974852 -10.017883797790233 0 0 0
1866 1 -13.104266144411866 -12.688784917315363 -8.66521044696381 0 0 0
1818 1 -9.540317654978258 -10.19366559520086 -9.624282509273165 0 0 0
1829 1 -11.151203133484824 -8.409911211276334 -9.919665642542657 0 0 0
1861 1 -12.725440614992838 -13.671712107441255 -10.928549566886193 0 0 0
1749 1 -14.061411371960318 -11.617930066728068 -11.379500810111555 1 0 0
1852 1 -10.602054895457574 -11.681004755726741 -8.24385493409936 0 0 0
1846 1 -8.137634172334922 -12.283690874593814 -9.141596605130829 0 0 0
1820 1 -6.997819139741756 -10.847253744634907 -10.70603318893732 0 0 0
1822 1 -4.46185612867589 -11.551698978081475 -11.691043738460351 0 0 0
1863 1 -6.693868202585942 -12.250430659717512 -12.729525550876051 0 0 0
1833 1 -5.684718113183511 -9.383450011919635 -12.172027883129468 0 0 0
1862 1 -7.879674434467393 -9.987833831942492 -13.027631976010003 0 0 0
1804 1 -4.830384621163587 -10.257938858175793 -9.653644441166136 0 0 0
1819 1 -7.254063436445591 -9.689441562055809 -8.65039691136073 0 0 0
1858 1 -3.9816676891778258 -12.789297311188127 -13.765849515157475 0 0 0
1856 1 -5.809387561550258 -13.082051366632536 -10.224505164878455 0 0 0
1834 1 -3.272161160113102 -9.994837892587936 -13.253512030594072 0 0 0
1821 1 -3.547091848384623 -8.782682065810558 -11.19647741726883 0 0 0
1849 1 -3.639020199175768 -12.420812448255873 -9.178420433491569 0 0 0
1831 1 -8.369915411695908 -8.772746762557794 -11.03592002128616 0 0 0
1848 1 -8.034354982392985 -13.783666129291625 -11.008597959883058 0 0 0
1064 1 -3.2234589650398817 -13.757003643526314 -11.135606475360245 0 1 0
1806 1 -2.3749895922190962 -11.007802911569273 -10.58046887485952 0 0 0
1823 1 -1.189222047786604 -9.45162580889717 -12.114504814712356 0 0 0
1824 1 -1.9207203015692755 -12.260791602565904 -12.678919834444683 0 0 0
1825 1 0.11598939152732868 -11.598719155076793 -11.67421551608649 0 0 0
1807 1 -0.049727650843315985 -10.26863458640987 -9.747688304598327 0 0 0
1761 1 1.5428894823158554 -10.22030354333932 -13.211003708617067 0 0 0
1796 1 1.4798262245593854 -12.21835040159326 -9.340812484443415 0 0 0
1805 1 -2.7394341927488686 -9.641978129812408 -8.655291015766416 0 0 0
363 1 0.7456036968393658 -12.86625117317079 -13.73014171010732 0 0 1
1808 1 -1.1473716588730927 -13.164280449715525 -10.06262055456714 0 0 0
1741 1 1.0918247600054904 -8.845641675583659 -11.227567232846965 0 0 0
1720 1 2.0899479560827334 -9.756581086661924 -8.84548867681357 0 0 0
1809 1 2.411756675751123 -10.993454447757003 -10.9202351731121 0 0 0
1826 1 2.873642311769112 -12.435513463567279 -12.647680561868523 0 0 0
1744 1 5.620846919002576 -9.087552370815715 -10.608911971342108 0 0 0
1811 1 4.927856440547481 -11.692583511287545 -11.454574085403598 0 0 0
1724 1 7.001651205113648 -11.19490163332372 -10.195291880995718 0 0 0
1722 1 4.223673974579524 -10.639626051239865 -9.43437768555782 0 0 0
1747 1 6.123860232485773 -10.110238933869638 -12.88565985569498 0 0 0
1814 1 7.507672010566976 -12.121196201566521 -12.428353239919744 0 0 0
1813 1 5.413044617641271 -12.77868430929011 -13.563615490248848 0 0 0
1743 1 3.7806474911961434 -9.511798930769007 -11.983156667157202 0 0 0
1625 1 7.716620981092609 -8.521919114125858 -9.631026835470514 0 0 0
1065 1 3.606244249690368 -13.243834286174433 -9.802856427877062 0 1 0
1798 1 5.594080218535984 -12.727929858476603 -8.582864281014919 0 0 0
989 1 6.077212635922672 -13.713065952226293 -10.83552689222504 0 1 0
1726 1 8.240775851229005 -13.159600506579954 -9.802919203723846 0 0 0
1746 1 8.283783635862859 -9.721061567433164 -11.633259988830147 0 0 0
1627 1 8.951752414589398 -10.583520519412652 -9.028543578468689 0 0 0
1629 1 11.774921275598912 -11.024636612451776 -10.185883839163635 0 0 0
1728 1 12.11632166478507 -12.148057314672968 -12.373220456492534 0 0 0
1748 1 9.703169344422003 -11.760190725636313 -11.338229651063251 0 0 0
539 1 10.856092866471405 -10.040459833067274 -12.816561235900384 0 0 1
1649 1 10.40202352920621 -9.030929395811384 -10.599300655908632 0 0 0
1729 1 13.221833955419728 -13.04093792146286 -9.752702559154054 0 0 0
537 1 9.958820419945765 -12.782361807421498 -13.546153725586137 0 0 1
1650 1 13.020748588915326 -9.543545872314237 -11.77424705351446 0 0 0
1517 1 12.642654143927585 -8.61164126259362 -9.607491907012676 0 0 0
1727 1 10.292394442094752 -12.718474017325587 -8.700034203268062 0 0 0
1709 1 10.903609630188344 -13.746977369623835 -10.8947205929459 0 0 0
535 1 13.425175391219915 -10.753742823280879 -13.86703317775519 0 0 1
1630 1 13.933884678946475 -10.635294603277925 -9.196391350671938 0 0 0
32 1 -14.06475137691271 -8.05042684028353 -13.37772973797147 0 0 1
1828 1 -13.721256236440038 -7.905748904947945 -8.69505503053328 0 0 0
1836 1 -9.224056679047834 -7.934980553369077 -13.429344766155443 0 0 0
1765 1 -12.42039087708793 -6.395422554614818 -10.203130635172494 0 0 0
1766 1 -10.14009609731132 -5.612858281737395 -9.319133020982182 0 0 0
1767 1 -9.755854206640464 -6.77281656089747 -11.304752401065311 0 0 0
1775 1 -11.175592216314632 -4.873571140118164 -11.640737083467613 0 0 0
1835 1 -11.907905583767498 -7.575081725658729 -12.304632032884696 0 0 0
34 1 -13.241318642588828 -5.570343223076135 -12.710568449102094 0 0 1
1670 1 -11.520676150979615 -3.714640295569483 -9.662429295112794 0 0 0
1682 1 -9.882099102196293 -3.379958863073549 -13.204995924342157 0 0 0
1774 1 -13.59022194468642 -4.30818599866371 -10.643808186450503 0 0 0
27 1 -10.582659147795683 -5.8869529452899645 -13.76996755719529 0 0 1
1671 1 -9.237013778937879 -3.0365064743468935 -8.729541596089717 0 0 0
1672 1 -8.958531649203836 -4.215700775313593 -10.816923863205918 0 0 0
1753 1 -8.822627128412954 -7.527435472286678 -9.023627357708667 0 0 0
1776 1 -8.328665484133746 -5.37100606177183 -12.97365557841163 0 0 0
1755 1 -6.160658815960314 -8.206127633812144 -10.067033226203169 0 0 0
1674 1 -6.2003156022729105 -4.636857659363439 -11.945966480689322 0 0 0
1768 1 -7.4513501367328185 -6.2036627405773865 -10.517339848433409 0 0 0
1769 1 -7.090500904767159 -7.313420605964089 -12.57771325573276 0 0 0
1770 1 -4.904688450538666 -6.702467525530714 -11.431327213213525 0 0 0
1754 1 -5.3048400760497465 -5.574120237551373 -9.387814961875772 0 0 0
1659 1 -4.0961230384341825 -3.923335808066094 -10.849750068026873 0 0 0
1737 1 -3.9535879405613716 -7.588601981293064 -9.081592176549696 0 0 0
1673 1 -6.610778288317548 -3.5699331256273172 -9.795963068860878 0 0 0
1771 1 -3.6074402630453033 -5.217144528720546 -12.854251794364195 0 0 0
1684 1 -4.992474773207626 -3.0633304319383132 -13.238242159115382 0 0 0
85 1 -4.521952314904166 -7.973411216705127 -13.572606037538792 0 0 1
1657 1 -7.7928132574134805 -5.006763022461465 -8.501816763992116 0 0 0
1658 1 -4.5040126774461235 -2.854260949435865 -8.720140061090543 0 0 0
1638 1 -3.183279612945693 -4.931747050865043 -8.419136279230639 0 0 0
1739 1 -1.470513608488364 -8.145291729397831 -10.059044763177804 0 0 0
1756 1 -2.728100953105269 -5.983576078678781 -10.501331387040523 0 0 0
1757 1 -2.3271177387769075 -7.376046531327955 -12.59980714087846 0 0 0
1661 1 -1.3189967005381984 -4.594510864448285 -11.96222545987276 0 0 0
1758 1 -0.15826320785244974 -6.674349428573892 -11.625033792072617 0 0 0
1662 1 0.865266853181355 -4.097807414567679 -10.825528722863528 0 0 0
1663 1 1.2149224061627368 -5.204216765724324 -12.997209669075023 0 0 0
1640 1 -0.5946624293513505 -5.38680139320922 -9.30994522987307 0 0 0
1740 1 0.6943023607272476 -7.556807165553836 -9.112476272490266 0 0 0
1660 1 -1.847828619620202 -3.3463119501961547 -9.834596973086562 0 0 0
1642 1 1.9144032606981813 -6.2020505045631715 -10.503459591313325 0 0 0
1677 1 -0.17230391664962497 -3.1464442815410703 -13.401950465932417 0 0 0
1759 1 0.19619117757171622 -8.019349695071881 -13.682702385294203 0 0 0
1528 1 0.29742977090104006 -2.8258959293527166 -8.63987482774248 0 0 0
1641 1 1.5863463335442454 -5.1007914199299496 -8.291428293866872 0 0 0
1742 1 3.25391382696 -8.248244345365963 -10.215452760981467 0 0 0
1760 1 2.2422349827360524 -7.364398380455916 -12.601813139632002 0 0 0
1646 1 6.952925990285545 -7.534882954188638 -12.258493905349535 0 0 0
1664 1 3.40331462571927 -4.749818741557013 -11.79640765298104 0 0 0
1644 1 4.574356699158903 -6.945668380539282 -11.472011224211341 0 0 0
1532 1 5.395018318417412 -4.214895565397889 -10.633495627069514 0 0 0
1666 1 5.883625072959683 -5.406264898834962 -12.728006140522814 0 0 0
1645 1 6.55685166282831 -6.350875337296748 -9.984816464566405 0 0 0
1533 1 7.2668159415457705 -3.7927922970844428 -9.405924364518334 0 0 0
1643 1 4.101657557550103 -5.657967971789201 -9.319816917821939 0 0 0
1534 1 7.96743665475803 -4.8306457320207965 -11.718682731974393 0 0 0
1530 1 2.815287486600697 -3.613376485848466 -9.697221629887368 0 0 0
1553 1 4.530157363718539 -3.3382103009687114 -13.254461142800949 0 0 0
1531 1 4.913969517378208 -3.0331037375295136 -8.442665983675713 0 0 0
1762 1 4.831887027891524 -8.14037524155707 -13.420472158383044 0 0 0
1623 1 5.147397592228765 -7.8469372176864125 -8.550471864821692 0 0 0
1554 1 6.604968350863876 -2.8343431372436996 -12.144794633892609 0 0 0
1515 1 9.944123808078517 -7.961612704683624 -8.498631765221894 0 0 0
1648 1 9.566144414635675 -8.019425741254127 -13.206094380279639 0 0 0
1538 1 11.756665703975072 -7.392879575476578 -12.165708754649382 0 0 0
1647 1 9.052618811288015 -6.997741643134575 -11.020071475196307 0 0 0
1556 1 9.064661448810357 -3.343189181438847 -13.17109947877173 0 0 0
1535 1 10.009227217121419 -4.400389152091265 -10.401730369664854 0 0 0
1536 1 10.374588745002852 -5.582930524046764 -12.554459822362755 0 0 0
1537 1 11.333937016387383 -6.557565865664988 -9.981004952881214 0 0 0
1427 1 12.207410236446 -3.8039657206717283 -9.455869826314078 0 0 0
1428 1 12.58485746804003 -4.825658135856646 -11.583111060680361 0 0 0
1513 1 8.679851971054086 -5.836495514141074 -8.952800619126315 0 0 0
1407 1 13.426909285943067 -5.873299508643745 -9.09610954031588 0 0 0
1426 1 11.120802313566083 -2.8911267342936107 -11.939520801753238 0 0 0
543 1 13.049003219033997 -5.949851690645058 -13.665694401148254 0 0 1
1667 1 8.283382582401396 -6.146657691559087 -13.846472191193687 0 0 0
1403 1 9.603105610430555 -3.427168493844391 -8.346747796137683 0 0 0
1539 1 13.86805808295245 -7.124527477521167 -11.17434431716697 0 0 0
45 1 13.949496192867135 -3.3106015009589154 -13.038884005912978 -1 0 1
1680 1 -12.319760757236638 -2.7652694258665793 -12.085071003256612 0 0 0
1681 1 -10.304656684853047 -2.098689015270704 -11.05352953177754 0 0 0
1679 1 -12.80903877907546 -1.5654681925928156 -9.944359139583742 0 0 0
1574 1 -11.582578651072245 -0.050796562802545964 -11.491060031623228 0 0 0
1573 1 -12.052607181621784 1.1022774784382552 -9.332722438351944 0 0 0
1580 1 -10.296829564191302 1.4348352083422444 -13.036140777053273 0 0 0
1561 1 -9.45396448272512 0.5074772459539094 -10.536026977975203 0 0 0
1579 1 -12.771946727706629 2.0270478716308915 -11.888482414134105 0 0 0
1466 1 -10.598567177608624 2.568959396119169 -10.920439547607115 0 0 0
1576 1 -8.885653378283457 -0.6771523271398578 -12.673484852143211 0 0 0
38 1 -11.132506036025283 -1.2703021906149523 -13.535626956447285 0 0 1
3 1 -13.819546956648157 -0.550531274197148 -12.32207149839459 0 0 1
1669 1 -10.652578547225003 -1.1088937378399493 -8.957986254014084 0 0 0
1467 1 -9.884522671414258 1.6086183411118178 -8.336153604151235 0 0 0
1685 1 14.16565117752185 0.4333532941543883 -10.255517906745187 -1 0 0
1683 1 -7.5530822605506405 -2.703612639180527 -12.10410302482304 0 0 0
1575 1 -8.074335096885232 2.1390447131790573 -11.962614751388562 0 0 0
1563 1 -7.878631584864938 -1.402228613050223 -10.130526580012692 0 0 0
1565 1 -5.408962203244126 -1.8864121268869631 -11.179397978263971 0 0 0
1577 1 -6.716087766200424 -0.02583870024102808 -11.705903986427156 0 0 0
1578 1 -4.109180100275651 -0.49144730783343427 -12.729085575018944 0 0 0
1454 1 -7.210292135663073 1.1368973388686534 -9.545868340400581 0 0 0
1564 1 -4.625263524550359 0.7192638582253998 -10.658789061273552 0 0 0
1545 1 -5.793411644513025 -0.9145461416246139 -9.043352583122953 0 0 0
30 1 -5.469107419063166 1.485325790975729 -12.993881608014744 0 0 1
1456 1 -3.3208214458961187 2.0802115392662337 -11.95470172392579 0 0 0
1469 1 -5.843500667489106 2.729692506541742 -10.868568772569303 0 0 0
1455 1 -5.066949801584469 1.6712219080907413 -8.3852903454619 0 0 0
1547 1 -3.272665762988252 -1.4476633983800298 -10.194451510724889 0 0 0
29 1 -6.345468394516736 -1.0845630641090285 -13.742183754797267 0 0 1
1551 1 1.9987955775703394 -2.6029751406248884 -12.133125001078756 0 0 0
1675 1 -2.767709556074534 -2.4552791228881414 -12.298933582228177 0 0 0
1549 1 -0.5025482364415073 -2.064964230988954 -11.185013371797746 0 0 0
1437 1 -2.402508656079254 1.0738446917211757 -9.434772019853206 0 0 0
1566 1 -1.7501046174827302 0.038495665520805744 -11.667239279570815 0 0 0
1439 1 0.19426312229391662 0.6944404379102558 -10.427365112677265 0 0 0
1568 1 0.7720971695728238 -0.5671341296638737 -12.627777337666872 0 0 0
1458 1 -0.6394008372560478 1.5948432985621945 -13.02914875305033 0 0 0
1548 1 -1.1440081339176693 -0.8056828131997609 -9.088731914195627 0 0 0
1550 1 1.5711808666848501 -1.3799937351260407 -10.113484333184063 0 0 0
1440 1 2.3399437634811253 1.049342314581315 -9.281188563895372 0 0 0
1459 1 1.4764461918749525 2.05956582308632 -11.954028185662972 0 0 0
1457 1 -1.1479929880960391 2.7186603305586914 -10.923235074457944 0 0 0
1567 1 -1.456634086614553 -1.1117987108338525 -13.794135104303574 0 0 0
1441 1 2.8891636616168217 -0.025895505386856144 -11.559280372136978 0 0 0
1552 1 4.123585261623942 -2.128320015697671 -11.079239019265822 0 0 0
1422 1 6.239701385206567 -1.6553456640177924 -9.970537815342816 0 0 0
1331 1 3.661368784604603 2.519265878560109 -10.941501286258479 0 0 0
1442 1 5.0018004950305635 0.4630041752677059 -10.453582223730875 0 0 0
1443 1 5.2947094392071765 -0.636597962343906 -12.564825002228943 0 0 0
1334 1 6.9575143897948255 0.976763985116003 -9.362905050606809 0 0 0
1420 1 3.650050074196594 -0.9823437801249142 -8.842991210842925 0 0 0
1461 1 4.029906741121204 1.4556421956530574 -12.99413840641442 0 0 0
1333 1 6.113546271647776 1.9581403099607808 -11.906792748824843 0 0 0
1444 1 7.544374355649298 -0.1609630749394615 -11.486360196732054 0 0 0
1445 1 7.9471096136153125 -1.2950205810709026 -13.61547018135174 0 0 0
1570 1 3.2383164833086138 -1.1792816366937622 -13.747638421809242 0 0 0
1423 1 8.355458910882904 -1.20892241715039 -8.803139941587371 0 0 0
1223 1 8.20554721290054 2.551788938046947 -10.78432710931129 0 0 0
1424 1 8.716848174840505 -2.3895694991126835 -10.982562893917136 0 0 0
1317 1 13.382300445527518 -2.245992328619888 -10.815508953912609 0 0 0
1425 1 10.879919896395075 -1.7232231227759378 -9.683933609232895 0 0 0
1313 1 9.534053046477409 0.39410699340980493 -10.335250151223928 0 0 0
1315 1 12.114103764160435 -0.26478573192242294 -11.359498326804774 0 0 0
1446 1 9.896801863537734 -0.6591340892063435 -12.365376509149687 0 0 0
1205 1 11.645978116643496 0.8763809832378229 -9.140587240671762 0 0 0
1336 1 10.766010462172437 1.969461866357678 -11.855879177089928 0 0 0
1316 1 13.060822487657296 -1.1568058843822033 -8.656520062678867 0 0 0
1448 1 12.531200123071466 -1.2913174797332303 -13.442897165601101 0 0 0
1226 1 12.89652375741815 2.4535959106480867 -10.559617507836947 0 0 0
1338 1 13.472775783724684 1.493043467882286 -12.885069768958836 0 0 0
1335 1 8.723953795142696 1.4583900086879353 -12.947623987890744 0 0 0
1337 1 11.320348096610706 0.8790362539890921 13.796048649833535 0 0 -1
1464 1 -13.392716469584812 3.0871177213988936 -9.649130237005632 0 0 0
1475 1 -11.561418102007636 3.6420380162021644 -13.54493308442789 0 0 0
1357 1 -12.474697416893566 5.705550868340094 -9.076628357231678 0 0 0
1359 1 -9.876950350232708 5.098563213783663 -10.189605146692234 0 0 0
1474 1 -11.99892498459987 4.5647082620991775 -11.248223246654744 0 0 0
1371 1 -10.699033196651536 6.231956454359526 -12.823504820838803 0 0 0
1369 1 -13.349070895936343 6.844287147294747 -11.614113808958315 0 0 0
1370 1 -11.23041470000388 7.253843070933616 -10.56955175346789 0 0 0
1476 1 -9.428989712042393 4.113961555798156 -12.465573805387208 0 0 0
1368 1 -13.74717788697793 7.752764885727917 -9.303528895801772 0 0 0
1250 1 -9.087519983091987 7.882097133586381 -9.428744625357997 0 0 0
13 1 -11.93386840191529 8.171792511285155 -13.285133948667932 0 0 1
1465 1 -11.317465549110999 3.6184022126217457 -8.732100665782106 0 0 0
11 1 -12.807218806057106 5.5610706848677545 -13.807708088699009 0 0 1
1473 1 -14.167438900021537 4.083488818236251 -12.26868894717364 0 0 0
1361 1 -8.549294530041376 3.1127441521982995 -9.630203432121633 0 0 0
1248 1 -11.581128872471528 8.323272289964748 -8.29104530234817 0 0 0
1372 1 -8.63898185210088 6.712638264612341 -11.578352877239645 0 0 0
1468 1 -6.710663460362272 3.6438757922146046 -13.358465046316246 0 0 0
1362 1 -5.092617398490054 5.251552959078666 -10.180851287315258 0 0 0
1363 1 -4.562017544358634 4.148703278125538 -12.451329268384882 0 0 0
1373 1 -7.304340142047944 4.59052534109308 -11.192918526176673 0 0 0
1252 1 -6.553026069975565 7.290910877876641 -10.603247580634571 0 0 0
1345 1 -6.346179585409634 3.74375448320723 -8.69173358588439 0 0 0
1253 1 -4.359476565345744 7.750473607395616 -9.528909352569965 0 0 0
1360 1 -7.687235497963771 5.774684156926128 -9.065924258146971 0 0 0
1264 1 -7.180157508133874 8.188431673094783 -13.2491172639876 0 0 0
42 1 -5.843629510141847 6.142311521846747 -12.74195800802811 0 0 1
1254 1 -3.709239523368481 6.778252962070312 -11.705418584621842 0 0 0
1347 1 -3.7835829629752133 3.082116058467509 -9.738779491141969 0 0 0
53 1 -8.04666588478647 5.547431752001003 -13.818920282147346 0 0 1
1237 1 -2.908016385899547 5.71535782289174 -9.036808608044149 0 0 0
1329 1 0.9578724485352037 3.0953896954476257 -9.64420472218481 0 0 0
1349 1 0.2000669706845759 4.112894354235166 -12.363677052921327 0 0 0
1364 1 -2.5566647163898626 4.675837017040411 -11.231091632061197 0 0 0
1239 1 0.9221640966865774 6.599910158877609 -11.723463109831805 0 0 0
1348 1 -0.3252399994017381 5.18124039468298 -10.212100980333151 0 0 0
1255 1 -1.5949194639915838 7.208047844175866 -10.495382960496169 0 0 0
1256 1 -1.1088797666967398 6.150935549978232 -12.768229995798812 0 0 0
1130 1 0.5570789453160696 7.714467799502387 -9.457925395108912 0 0 0
1240 1 1.8376580753107756 5.615316402347705 -8.981598990004663 0 0 0
1350 1 2.2979285951098642 4.6704347296530635 -11.171302019108238 0 0 0
1257 1 2.261746656737481 8.214567896561 -13.169208996385517 0 0 0
1266 1 -2.388479842581239 8.11866769835359 -13.238479067097284 0 0 0
1471 1 -2.0414883581873333 3.601475177353425 -13.353541959718617 0 0 0
1327 1 -1.7202449766869403 3.6721707297529207 -8.582651821321072 0 0 0
1131 1 2.562369742012896 8.22823848574065 -8.412350607324809 0 0 0
1366 1 1.3087416732452049 5.736269869674171 -13.847054495694703 0 0 0
1221 1 5.839770004005265 3.1509520431831746 -9.760196532211259 0 0 0
1132 1 3.0430672916733226 7.164116522435727 -10.507270964841211 0 0 0
1241 1 3.590000188073704 6.175231507096317 -12.810807815130557 0 0 0
1352 1 4.925270595164706 4.148529101712484 -12.359730875137181 0 0 0
1242 1 4.464380115889506 5.137167838564924 -10.114161883554624 0 0 0
1114 1 6.597451817331452 5.517208545094501 -9.064439965705834 0 0 0
1134 1 5.611563739449698 6.6766423662002765 -11.604497392978503 0 0 0
1244 1 7.048715458818888 4.706944782518374 -11.260566584123707 0 0 0
1133 1 5.312969168061825 7.653651106260551 -9.504617316716491 0 0 0
1135 1 7.786724449242508 7.199474557428033 -10.604442001886682 0 0 0
1154 1 6.955282789595865 8.197120185411361 -13.048383714436019 0 0 0
1222 1 7.867959098355682 3.4191272133457637 -8.557324491749423 0 0 0
1351 1 2.7777463402964404 3.558108340532872 -13.441539459893523 0 0 0
1219 1 2.9945908775042636 3.545355401356943 -8.569140412088707 0 0 0
1354 1 7.499424964331913 3.486451330810901 -13.316584539493041 0 0 0
1033 1 7.414719606497071 8.21907651658816 -8.404660656465738 0 0 0
1136 1 8.425116688604545 6.07909964496805 -12.817945570046161 0 0 0
1224 1 10.318649244163415 3.0090727969114432 -9.686063046965614 0 0 0
1355 1 12.283159360695775 3.5071523008064034 -13.375085870087924 0 0 0
1116 1 9.24147969068378 5.198284786137641 -10.143288659937687 0 0 0
1117 1 11.216780117237649 5.716516233832095 -8.934135717227857 0 0 0
1245 1 9.759922442982523 4.070959989731815 -12.30421463973893 0 0 0
1137 1 10.547050481453875 6.671358244222116 -11.665603742232383 0 0 0
361 1 11.69716079910595 4.593300895945266 -11.093725616933016 0 0 1
1037 1 12.55410593261547 7.303284638064579 -10.503008675934081 0 0 0
1035 1 9.874116863330874 7.81636112414753 -9.660114731886752 0 0 0
1138 1 13.14523492589131 6.18549478870732 -12.729902882111704 0 0 0
379 1 11.818287103284094 8.193575552416846 -13.148178717590541 0 0 1
1098 1 12.376329478991535 3.638136545933879 -8.614769296864944 0 0 0
200 1 10.847086352039748 5.58126720976016 -13.832651999036875 0 0 1
1036 1 12.098790287834367 8.262474905158847 -8.334848864071663 0 0 0
1118 1 13.816778318709842 5.144126403790828 -10.141713362877688 0 0 0
1262 1 -9.77356376761119 8.733041397902547 -12.171238145819016 0 0 0
1164 1 -11.623844398120141 11.871934307913666 -10.43050696230294 0 0 0
1157 1 -11.116162714574607 10.891841927920257 -12.557366755414087 0 0 0
1260 1 -12.504401501503743 9.31337897702759 -11.01615237564422 0 0 0
1261 1 -10.308313819052138 9.89780443433246 -10.11034458748561 0 0 0
705 1 -12.368733632831017 12.88098984235316 -13.078173085870382 1 -1 1
1156 1 -9.437776264179233 12.466343562196954 -9.556871750731572 0 0 0
1142 1 -13.001156163675997 10.295185012571405 -8.843003379682331 0 0 0
1867 1 -10.192333003902734 13.473116255455498 -12.073331609624205 0 -1 0
1158 1 -8.872682166699203 11.357208426957563 -11.601804525642532 0 0 0
18 1 -13.28707817134384 10.313832533739092 -13.529449441311597 0 0 1
1267 1 -13.873833560119323 11.46383637047363 -11.355888900275065 0 0 0
1155 1 14.213466747332033 12.403590205298656 -9.286318728880627 -1 0 0
1865 1 -12.020714605621551 12.993263255555512 -8.237900619905865 0 -1 0
1159 1 -8.427047146550876 10.296586458350209 -13.751906564434432 0 0 0
1265 1 -5.038685470966648 8.81810183171008 -12.22010144330963 0 0 0
1144 1 -8.093234826193008 10.303706815165167 -8.931467266247829 0 0 0
1165 1 -5.459107885310319 13.441847507044468 -12.068524347677545 0 0 0
1146 1 -5.640092568969909 9.813668444009554 -9.961658534430184 0 0 0
1160 1 -6.665116854251302 12.009121835992673 -10.505717214228762 0 0 0
1161 1 -6.397494686147779 10.829723417916192 -12.625638302426154 0 0 0
1263 1 -7.724984717288438 9.294111928944588 -11.064284847575617 0 0 0
1162 1 -4.087608100064463 11.302095447666755 -11.533663588115974 0 0 0
1055 1 -4.653698262491272 12.516679570306547 -9.52800674372412 0 0 0
1857 1 -7.54336778478812 12.860262403234373 -13.10343241224698 0 -1 0
1147 1 -3.60358333755887 10.346950266778865 -8.81564522910251 0 0 0
57 1 -3.520942682572329 10.270657859821238 -13.726072319261847 0 0 1
1054 1 -7.318247529348134 13.258284533399724 -8.448955412729575 0 0 0
1810 1 1.4426818313283079 -13.81798385281127 -10.958341585000028 0 0 0
1148 1 -2.923407776413498 9.220759196465679 -11.046259565304457 0 0 0
59 1 -2.9447919548962815 12.861244783593925 -13.136620967066854 0 0 1
1150 1 -0.3019272157680497 8.749501340455001 -12.078869394478323 0 0 0
1057 1 -2.0076191100672087 11.796431406859003 -10.413710234560794 0 0 0
1163 1 -1.5617139260553348 10.815319408030835 -12.56883867014529 0 0 0
1059 1 0.4922925128040436 11.500988354722406 -11.507453575385572 0 0 0
1149 1 -0.784053183727563 9.627224206673262 -9.919014459208562 0 0 0
1058 1 -0.04839299233990424 12.41282312383482 -9.204050227028912 0 0 0
1151 1 1.7626137397147374 9.177565135399849 -11.039739221055783 0 0 0
1812 1 1.8909035897620274 12.842008763913725 -13.151419837113579 0 -1 0
1859 1 -0.7558018412155043 13.466276582937823 -12.074804126136952 0 -1 0
1045 1 1.176504968011967 10.22869053267323 -8.923094344304783 0 0 0
118 1 0.9281878269934651 10.200867851271635 -13.648103886310313 0 0 1
1056 1 -2.489351793225696 13.095938520269659 -8.410670252541218 0 0 0
980 1 2.134379323910794 12.99278254466537 -8.274565168118043 0 0 0
1060 1 2.6124826105061434 11.830457119617868 -10.305081512850137 0 0 0
1153 1 4.332323192368415 8.776043336130147 -12.000644791431899 0 0 0
988 1 4.02339695356663 13.405187822942853 -11.936909297260009 0 0 0
981 1 4.723696624118665 12.461715147804924 -9.331800983396327 0 0 0
1047 1 3.7457695839436713 9.82633841259086 -9.93436909305303 0 0 0
1062 1 5.213961438973479 11.368076713837329 -11.397977052372273 0 0 0
1049 1 6.49594256228667 9.28198264478402 -11.027124100464517 0 0 0
1048 1 6.228667562306468 10.360454294600597 -8.900897412040678 0 0 0
1061 1 3.0598721679449614 10.79194490722238 -12.54424355260068 0 0 0
349 1 6.622775569727912 12.981333459273113 -12.963149144681044 0 -1 1
983 1 7.402225938869387 12.077303827736731 -10.406492838497831 0 0 0
98 1 7.919826052501962 10.940118527248039 -12.463383055890018 0 0 1
120 1 5.765703446436797 10.330197000559 -13.653824180486245 0 0 1
982 1 6.803522855649726 13.024650924211116 -8.15602549950384 0 0 0
1063 1 9.126818482733066 8.857677905757143 -12.177712795963512 0 0 0
990 1 8.786488922724507 13.477945004319775 -11.945391742521458 0 0 0
987 1 11.270834555737407 13.017889631586485 -12.866611931738735 0 0 0
984 1 9.452291238764444 12.569332573942322 -9.284951954083454 0 0 0
986 1 11.971163760208357 12.074282593641389 -10.45739054655615 0 0 0
1050 1 8.679154693997612 9.976052160344754 -10.023621773155377 0 0 0
1052 1 11.199296453995503 9.315583512975806 -11.0365921121261 0 0 0
985 1 10.03412499543183 11.489647359389714 -11.377067272049038 0 0 0
403 1 12.590023106628264 10.914450729010575 -12.47834885950862 0 0 1
1053 1 10.525206131552727 10.40426730334853 -13.5989756890132 0 0 0
991 1 13.423178335373068 13.649580947580759 -11.844930380067462 0 0 0
1259 1 13.269946622569025 10.0173893551827 -9.839693982100133 -1 0 0
977 1 10.769430940564108 10.455377874289557 -8.863455107039815 0 0 0
979 1 13.822812088990487 8.739773384673391 -11.923731855249068 0 0 0
1816 1 -12.247275848357013 -9.962778171387125 -8.218990999670059 0 0 0
1845 1 -9.493285200892707 -13.754907460156733 -7.615004750822162 0 0 0
1817 1 -10.054619647539148 -9.095979065076293 -7.631865311995153 0 0 0
1800 1 -11.125886841569198 -10.501876047865963 -6.027092359826373 0 0 0
1840 1 -12.452496317532965 -11.881323356378191 -4.522097753885745 0 0 0
1788 1 -9.752632787432526 -12.465454234219575 -5.542200181213733 0 0 0
1018 1 -10.070736661828143 -11.104927315686504 -3.4875041349141878 0 1 0
1844 1 -11.723246012689321 -12.79680946966894 -6.6504488157572785 0 0 0
1799 1 -11.620970365086965 -9.269915204816941 -4.018040235780996 0 0 0
1843 1 -13.620222444889324 -9.824807319267297 -5.0230554757684285 0 0 0
1585 1 -13.574864335658956 -13.3744683531582 -3.153360482794552 1 0 0
1850 1 -13.767593127547858 -11.548892643761999 -6.613585770134888 0 0 0
667 1 -9.190752479128445 -8.666478578383618 -2.999519235125087 0 0 0
1838 1 -10.991799452195497 -13.866592993709972 -4.216545190674996 0 0 0
1375 1 -14.050295938479271 -8.588499228879577 -2.8972859327363008 1 0 0
1839 1 -8.88607439996835 -9.861087771128876 -5.047491001985266 0 0 0
1802 1 -8.50513421336241 -11.025946160937945 -7.0996523668469 0 0 0
1847 1 -5.9555973384672125 -11.72834481270928 -8.234736746247389 0 0 0
1100 1 -8.787317410973564 -13.262106519205334 -3.0789956559970904 0 1 0
1803 1 -5.390950295338234 -9.0173205534991 -7.433446493662512 0 0 0
1841 1 -7.52850045780702 -11.871406149435757 -4.4844255867743765 0 0 0
1790 1 -6.302558267617895 -10.523270629258041 -6.0686730331459575 0 0 0
1791 1 -4.105233953834963 -9.760850309990015 -5.066302701094985 0 0 0
1842 1 -4.846618783870532 -12.383941259018354 -5.584401886591666 0 0 0
1789 1 -6.740211122960203 -9.294279412911095 -4.04201296772227 0 0 0
1038 1 -7.279946279922532 -12.971045018884007 -6.632338560118198 0 1 0
1778 1 -5.264674543995465 -11.263228138424322 -3.549708589868967 0 0 0
1022 1 -3.817989669948952 -13.367702013271453 -3.2596996062226964 0 1 0
1792 1 -3.791729614595189 -11.08490495402771 -7.1441224701319745 0 0 0
1695 1 -4.552838719930474 -8.650614913270996 -2.960331067487658 0 0 0
1039 1 -4.702456118364042 -13.805914453505798 -7.681847069455759 0 1 0
1021 1 -6.0255894705048405 -13.775035967857358 -4.2217843097145185 0 1 0
1801 1 -7.8388139858499315 -8.461960434624928 -6.678803080431723 0 0 0
1716 1 -3.014819969786581 -8.470566731688205 -6.647571783085338 0 0 0
1779 1 -2.9995799670449586 -10.589470310292679 -2.4402306659955446 0 0 0
1794 1 -1.174532506180622 -11.477756855995949 -8.216689276883512 0 0 0
1042 1 0.18160521127065365 -13.309383459097317 -7.837950099786781 0 1 0
1718 1 -0.5691178424780148 -9.037024180776045 -7.636626178211973 0 0 0
1780 1 -2.869382513470894 -11.799697057213645 -4.547631569659725 0 0 0
1040 1 -2.2921495960702707 -12.963830736718375 -6.772511837793208 0 1 0
1793 1 -1.665308225422205 -10.491865261417377 -6.113253353914827 0 0 0
1795 1 1.0861605759281296 -10.987450759547935 -7.1527584946589 0 0 0