LAMMPS data file via write_data, version 2 Aug 2023, timestep = 0, units = metal

1838 atoms
3 atom types

-13.447705762420032 13.447705762420032 xlo xhi
-13.66512514268115 13.66512514268115 ylo yhi
-14.790955029148435 14.790955029148435 zlo zhi

Masses

1 55.847
2 1.008
3 1.008

Atoms # atomic

1727 1 -11.476625423834442 -11.419044727878891 -12.127082448443957 0 0 0
1827 1 -12.905273184988497 -9.987587001362954 -13.490762393109705 0 0 0
1837 1 -10.14226503867099 -10.031404501139138 -13.668487341233517 0 0 0
1838 1 -12.67482761722395 -12.8331891492444 -13.703592916574975 0 0 0
1708 1 -11.483294432703435 -8.569559538459995 -11.95934830462392 0 0 0
1726 1 -10.013501286845955 -10.049646053499767 -10.724793776100348 0 0 0
1737 1 -9.903519445901566 -12.815760835551824 -10.842742975100084 0 0 0
1725 1 -8.533855593754485 -11.268227108552189 -12.370908918594496 0 0 0
1728 1 -12.797582197864312 -10.145431520365959 -10.564650289674145 0 0 0
147 1 -10.216396906299384 -12.72443500909959 -13.827618861174901 0 0 1
1706 1 -8.666511941443623 -8.538564696352417 -12.198487966988157 0 0 0
1738 1 -12.586236394086857 -13.022486896047626 -10.672612963532892 0 0 0
1544 1 -8.475017163860258 -11.326946464342571 -9.455147724964853 0 0 0
1546 1 -11.111034625683967 -11.567304214854378 -9.194876056649186 0 0 0
1525 1 -8.612326841977243 -8.574759716517011 -9.228300648224215 0 0 0
1527 1 -11.387643102472557 -8.645739284716221 -9.069119566597731 0 0 0
1826 1 -7.208134110155556 -9.685790227351301 -13.784287187748756 0 0 0
1723 1 -5.7630208240119485 -11.128838181617486 -12.444585471489544 0 0 0
1825 1 -4.657360398262302 -9.615805317410903 -13.893854255358399 0 0 0
1836 1 -7.197360610690332 -12.480191537237834 -13.887580898808885 0 0 0
1722 1 -4.252366063526081 -9.593391048933645 -11.025344141750132 0 0 0
1724 1 -7.161727004006036 -9.872623173127732 -10.859466135094225 0 0 0
1735 1 -4.318237861665695 -12.503247485958706 -11.059963186840296 0 0 0
1736 1 -7.109059904588536 -12.689406356683829 -10.948394551416097 0 0 0
1721 1 -3.0743466909106196 -10.976857635788045 -12.62779043698305 0 0 0
1540 1 -2.8039693604089546 -11.032717273467123 -9.757498758395037 0 0 0
348 1 -4.472577556808247 -12.474278908722692 -14.122140298365101 0 0 1
1542 1 -5.54409260854826 -11.11865857474841 -9.58388884189924 0 0 0
1523 1 -5.766254694255808 -8.400967925714717 -9.350966541547926 0 0 0
1704 1 -5.803170949640721 -8.173893084327744 -12.2669189077909 0 0 0
1702 1 -3.21607703368176 -8.124242583851775 -12.480164552889503 0 0 0
1521 1 -2.770287267089884 -8.31769010987432 -9.30635856726127 0 0 0
1824 1 -1.8673623969432427 -9.48078078273848 -14.03712822829821 0 0 0
1834 1 -1.67158653017351 -12.211006135427013 -14.2240923838348 0 0 0
1719 1 -0.1538607837314494 -10.891148556355887 -12.598795884090705 0 0 0
1823 1 1.0878497263580726 -9.400064553992692 -14.174168034713244 0 0 0
1833 1 1.1233682359822073 -11.998354160386533 -14.360349022376168 0 0 0
1720 1 -1.5696202889162798 -9.359261416675988 -11.143862423527837 0 0 0
1734 1 -1.420675834683614 -12.379781044216125 -11.248770323898498 0 0 0
1718 1 1.2926339582343065 -9.293847116817437 -11.353032005646456 0 0 0
1733 1 1.319242774635109 -12.326089639565856 -11.537206003781957 0 0 0
1717 1 2.667849003048243 -10.665870662732754 -12.913396528460328 0 0 0
1538 1 -0.0331891527647894 -10.91879440021978 -9.92057954682781 0 0 0
1536 1 2.868613580092255 -10.813258991081128 -10.004543587453059 0 0 0
1742 1 2.763580488470211 -13.49463620264843 -12.99715296344392 0 1 0
1519 1 -0.0641823858286994 -8.145569705238476 -9.745473644866205 0 0 0
1715 1 5.547479064436484 -10.564203930325498 -13.064794549234609 0 0 0
1714 1 6.823864844843481 -9.039213399438893 -11.656173918223125 0 0 0
1731 1 7.1123518473558605 -11.97324703974482 -11.903111496589215 0 0 0
1716 1 4.094266936179945 -9.181025028554636 -11.504148931644867 0 0 0
1732 1 4.3124602669430345 -12.053179036953022 -11.629907194244016 0 0 0
1534 1 5.818876227392302 -10.532447741089193 -10.142705137035708 0 0 0
1822 1 3.9293105241651176 -9.146244995833117 -14.293503480159098 0 0 0
1713 1 8.258875137954814 -10.370839601935808 -13.137815125880763 0 0 0
1832 1 4.113281458192986 -11.960130620208508 -14.430887769066702 0 0 0
1532 1 8.484808555077247 -10.496919345110644 -10.429075021165481 0 0 0
1830 1 8.434216567357147 -13.273829376185812 -13.376279130371397 0 0 0
1821 1 6.7986917685871475 -8.94810467928118 -14.578871265535621 0 0 0
1831 1 7.0673404288896045 -11.945588553186585 -14.595022913662817 0 0 0
1741 1 5.596732427190421 -13.505839579480075 -13.240469957887962 0 1 0
1560 1 8.613397721071564 -13.457880661105854 -10.59505988235543 0 1 0
1562 1 5.927967033988107 -13.480941205702127 -10.40446753577049 0 1 0
1828 1 12.669735699366996 -11.63533323147418 -12.079005980262826 -1 0 0
1710 1 12.63844137993306 -8.663620661924123 -11.912180663157514 0 0 0
1711 1 11.230007550296737 -10.189657912473297 -13.367071426947696 0 0 0
1712 1 9.785773794398601 -8.901036400110165 -11.864571550963454 0 0 0
1730 1 9.913777937439292 -11.836020993050676 -11.964987708371078 0 0 0
1530 1 11.25819097392736 -10.238716178814446 -10.495793082702933 0 0 0
1739 1 11.435909858753327 -13.005904871346734 -13.670620412892857 0 1 0
1829 1 11.459011532226576 -13.106497888464823 -10.631614392929059 0 0 0
1820 1 9.678650851104681 -8.794448414504735 -14.736370942703031 0 0 0
840 1 9.813100480532274 -11.637905180818498 -14.736942961903294 0 0 1
1689 1 -11.633407899424174 -5.709165069909513 -11.910334403443393 0 0 0
1807 1 -10.402432128808208 -4.105684739396867 -13.291838890570398 0 0 0
1817 1 -10.161101684455886 -6.98493182099013 -13.433101029876038 0 0 0
1687 1 -8.831635863914446 -5.531397106419993 -12.041200984779003 0 0 0
1688 1 -10.167206905983555 -4.324305326794974 -10.358363762322263 0 0 0
1707 1 -10.027276964979368 -7.139857353072877 -10.60048209505791 0 0 0
1690 1 -13.017670656281924 -4.525747414451892 -10.342295468350883 0 0 0
1709 1 -12.962785315334214 -7.221821423895778 -10.382783395902443 0 0 0
1818 1 -13.011819473032283 -7.072546952297521 -13.319361869358397 0 0 0
1670 1 -11.683683141787435 -2.8521467215578777 -11.770277007437254 0 0 0
1808 1 -13.201009466559233 -4.415076217290004 -13.109730445885065 0 0 0
1668 1 -8.914800569176945 -2.737809767255177 -11.761529842906361 0 0 0
8 1 -11.887196115641279 -2.671468343031437 -14.60512563425173 0 0 1
1797 1 -9.118439880800183 -2.524094563394412 -14.64428532952259 0 0 0
1806 1 -7.596931723837299 -3.9121434465822365 -13.417895567314641 0 0 0
1816 1 -7.495053354393401 -6.773917247106089 -13.608762575126967 0 0 0
1684 1 -4.505988535430172 -3.9804122264111665 -10.68451810739387 0 0 0
1685 1 -5.988403891085864 -5.527363992803334 -12.0948770433352 0 0 0
1805 1 -4.803762970146167 -3.9199183727896276 -13.573827227990563 0 0 0
1815 1 -4.669890958901346 -6.711345012429572 -13.82517904785398 0 0 0
1683 1 -3.1793673908900697 -5.276573521309716 -12.235309022569423 0 0 0
1686 1 -7.390531471629186 -4.18811545627362 -10.599115649375504 0 0 0
1703 1 -4.384876832897691 -6.918592130744873 -10.74893380303747 0 0 0
1705 1 -7.296463942226785 -7.080139792224279 -10.718729656489096 0 0 0
1502 1 -2.9031786465240277 -5.231049463690482 -9.491166615488641 0 0 0
1504 1 -5.9002886454231955 -5.511497964017664 -9.30100372718637 0 0 0
1517 1 2.796532310423885 -7.8636192051531655 -9.87166457569991 0 0 0
1804 1 -2.0370284258693268 -3.580040379273399 -13.602339501816918 0 0 0
1700 1 -0.2858277830971634 -7.97298524682359 -12.731264949573973 0 0 0
1698 1 2.6205827061963767 -7.756163129700775 -12.672437820961044 0 0 0
1814 1 -1.7968583329533967 -6.548436756325984 -13.728221575033489 0 0 0
1701 1 -1.6538164992393565 -6.71039903844023 -11.00966944900781 0 0 0
1682 1 -1.940390058927953 -3.686016337114621 -10.81461499184617 0 0 0
1680 1 0.8571356647371449 -3.5304649923687226 -11.028038346912156 0 0 0
1681 1 -0.4138853623826382 -4.944208431032251 -12.359890496038197 0 0 0
1699 1 1.1361086642354383 -6.559746903776172 -11.096115306859115 0 0 0
1803 1 0.7969519907467824 -3.4008724508599837 -13.888751084321763 0 0 0
1813 1 1.0513639700338473 -6.414465841802778 -13.90074298067261 0 0 0
1679 1 2.415348285691607 -4.777573930943824 -12.572523422491034 0 0 0
1498 1 2.5627260873426856 -4.884559413861837 -9.75852537933162 0 0 0
1500 1 -0.27638404694397956 -5.134361958750469 -9.678365243637696 0 0 0
1515 1 5.4732739471995835 -7.69844082847403 -10.041631821717775 0 0 0
1513 1 8.418868045134506 -7.526059191011277 -10.293752989167425 0 0 0
1696 1 5.384036677048872 -7.719120308282537 -12.87956949157965 0 0 0
1802 1 3.6553854510131565 -3.2236734455535263 -14.048732290235835 0 0 0
1677 1 5.228079739720094 -4.752537729480629 -12.778151286360405 0 0 0
1678 1 3.8346057275508727 -3.4871010082481657 -11.104430450655677 0 0 0
1697 1 3.9387087048718996 -6.308492236717614 -11.319205368069534 0 0 0
1812 1 3.8714635143697933 -6.122944700115667 -14.171545373395162 0 0 0
1676 1 6.696929587217642 -3.2347154264934908 -11.360572240212026 0 0 0
1695 1 6.86172247327076 -6.117728634845826 -11.499338021455124 0 0 0
1801 1 6.574936815010169 -3.0898731710774694 -14.118224234510066 0 0 0
1811 1 6.685983373582086 -6.212338507584469 -14.350749758440253 0 0 0
1675 1 7.9847596893537975 -4.570016337682006 -12.955136590826118 0 0 0
1694 1 8.40193814523019 -7.5223274915559735 -13.21937392843731 0 0 0
1496 1 5.452224691634765 -4.818433873723821 -9.89091623082296 0 0 0
1494 1 8.202494543052094 -4.855130636292124 -10.113917955294054 0 0 0
1511 1 11.243731036886416 -7.415111335500494 -10.425645602951814 0 0 0
1692 1 11.046676930751204 -7.430424750717387 -13.269070880238457 0 0 0
1673 1 10.894305113554847 -4.594807131528576 -13.060852131471423 0 0 0
1674 1 9.500231703893888 -3.2393523921464453 -11.490025526975495 0 0 0
1691 1 12.36050116034588 -5.93402832678394 -11.824422771019155 0 0 0
1693 1 9.62186626655257 -6.180405895003777 -11.639238304814818 0 0 0
1800 1 9.51513868495044 -3.0774152788645353 -14.190754433039276 0 0 0
1492 1 11.07488927370105 -4.645683333085611 -10.165854105509741 0 0 0
1672 1 12.313791067615554 -3.0445199615486 -11.593836517062703 0 0 0
1810 1 9.635138269148761 -5.953525497880428 -14.561317899838011 0 0 0
1799 1 12.235908881746465 -2.8022917912283916 -14.534002931985468 0 0 0
1809 1 12.262546499694928 -5.858315338474487 -14.689096590553 0 0 0
1651 1 -11.801763750543216 0.1654831745458729 -11.578654208401737 0 0 0
1787 1 -10.532899851527855 1.6970502304847308 -13.034523554387516 0 0 0
1649 1 -9.0297540208921 0.10449263633965877 -11.630654517601066 0 0 0
1669 1 -10.336304058026053 -1.4239024721103366 -10.320272038928499 0 0 0
1650 1 -10.413975846173862 1.4814923159235 -10.08443798469608 0 0 0
13 1 -10.612396669664074 -1.2662871305282675 -13.101598056616906 0 0 1
1632 1 -11.976127085727974 2.751162467742583 -11.349214305752692 0 0 0
1798 1 -13.27805792751256 -1.367037269244614 -12.90631018029908 0 0 0
1671 1 -13.306002049358016 -1.5931040397443574 -10.243144829797522 0 0 0
1788 1 -12.02187379001479 0.2248131543068137 -14.52580342343938 0 0 0
100 1 -9.274551099340503 0.16437728232458682 -14.525139630370223 0 0 1
1652 1 -13.204138535621913 1.2667012951207521 -9.978807364964505 0 0 0
1789 1 -13.2824105987314 1.4440005921819932 -12.883641400908338 1 0 0
19 1 -12.111811767378759 3.0711206210270685 -14.524844087722945 0 0 1
1630 1 -9.14763487785699 2.9923534203116073 -11.45791591088441 0 0 0
101 1 -7.843131521289188 1.6068791972464744 -13.191866636442441 0 0 1
1666 1 -6.0187325892282795 -2.487440780080302 -11.900741349672565 0 0 0
1664 1 -3.493125150802065 -2.27488003898239 -12.190763514144992 0 0 0
1483 1 -3.2560662771508433 -2.466107397374474 -9.181922203620948 0 0 0
1796 1 -7.704178928269983 -1.2324767827229302 -13.134216545572086 0 0 0
1648 1 -7.498785377441243 1.6268029117955596 -10.14618250472485 0 0 0
1667 1 -7.431377966467098 -1.2014304065868355 -10.275026247890104 0 0 0
1665 1 -4.734448277613584 -1.1147484883307452 -10.540586761076847 0 0 0
1795 1 -5.015418455295286 -1.0861295183883453 -13.511881110958669 0 0 0
1646 1 -5.03456638067534 1.8841235115581245 -10.490904045866113 0 0 0
1647 1 -6.230914257653126 0.16892976138991855 -11.93206749180581 0 0 0
1785 1 -5.192573485335515 1.815458118301045 -13.438608932533015 0 0 0
1645 1 -3.7603505411580525 0.4930231568238952 -12.095752441443153 0 0 0
1784 1 -2.3053074667194267 2.109497963179008 -13.401201749850411 0 0 0
1786 1 -6.583778682673168 0.3222927862121825 -14.758177685265471 0 0 0
1628 1 -6.515195337947492 3.132331595298721 -11.705300200480806 0 0 0
292 1 -3.81086823460007 0.6697701925761859 14.503486691998368 0 0 0
1794 1 -2.2995568482449116 -0.6998247904738903 -13.656922675636249 0 0 0
1481 1 -0.39477347162405785 -2.2203732750363354 -9.314505799888913 0 0 0
1644 1 -2.3270164654004493 2.029124351486674 -10.628570038114553 0 0 0
1479 1 2.3822585211949647 -2.224919344456259 -9.494780479191597 0 0 0
1662 1 -0.6983202040142107 -2.080857062191832 -12.271386992255978 0 0 0
1660 1 2.1803125194924267 -1.9714981587586067 -12.40109147497528 0 0 0
1663 1 -2.0269767533223995 -0.8982439947985217 -10.588567185070737 0 0 0
1661 1 0.7705357483568633 -0.7660352190724407 -10.729164831142455 0 0 0
1793 1 0.4951571483105983 -0.6092612418117778 -13.657434897651651 0 0 0
1642 1 0.5302726595963243 2.0636680246730474 -10.716924285393109 0 0 0
1643 1 -0.8728814100281745 0.6811141043085431 -12.203150693937449 0 0 0
1783 1 0.4207724180129784 2.254219216331693 -13.627343939665028 0 0 0
1641 1 2.0794054880869552 0.820294229234154 -12.276859036260193 0 0 0
1460 1 2.143735244299874 0.719501978423537 -9.407788280259965 0 0 0
1462 1 -0.5934451340559015 0.5668712351816314 -9.143163506204722 0 0 0
1782 1 3.2871795413219367 2.4484090163566936 -13.66672218864222 0 0 0
1792 1 3.441714201939522 -0.5164282871962342 -13.897056132183513 0 0 0
1640 1 3.448376575623932 2.2539440450586987 -10.888531325546307 0 0 0
1659 1 3.570633687587801 -0.602594217497785 -10.956179494039263 0 0 0
1477 1 5.204322656223699 -1.944043968705941 -9.704645794173498 0 0 0
1658 1 5.086260928482872 -1.894536106139551 -12.519835589279444 0 0 0
1657 1 6.5138112968210535 -0.40744730165185317 -11.084599530775321 0 0 0
1791 1 6.350748268710362 -0.34522029688848477 -13.997806605308224 0 0 0
1639 1 4.931902084261527 0.9136694689777531 -12.317059916785894 0 0 0
1638 1 6.367060093871501 2.345295022411287 -11.04016368815945 0 0 0
1781 1 6.208983088203187 2.5635604265651057 -13.909748299096488 0 0 0
1656 1 7.904111934707437 -1.6793746617482572 -12.774349027955367 0 0 0
1637 1 7.67415460353752 1.1094259590015785 -12.567969121164912 0 0 0
1475 1 8.128188974950007 -1.8422102693731865 -9.92997123447278 0 0 0
1456 1 7.975887835805327 1.021999554510618 -9.659173831338363 0 0 0
1458 1 4.995775673057182 0.8287348740526745 -9.656153485452807 0 0 0
1780 1 9.114013594992471 2.6209781045976843 -13.963131327629174 0 0 0
1790 1 9.239603186573266 -0.06361559984201115 -14.051059797035082 0 0 0
1636 1 9.284293591876832 2.6588622139196207 -11.140827583569656 0 0 0
1653 1 12.17071144468326 -0.0653571517904652 -11.466388225532917 0 0 0
1654 1 10.711975310096214 -1.6075247172500085 -12.804185355598207 0 0 0
1655 1 9.309745215686068 -0.1714069896535122 -11.37618590935597 0 0 0
1635 1 10.686706383468056 1.4494148132004945 -12.697908909159976 0 0 0
1473 1 10.9254086203375 -1.6815705924139763 -10.102903460040029 0 0 0
1454 1 10.766099835855467 1.0402354876094773 -9.887996184170188 0 0 0
1634 1 12.129276964095673 2.7378650907034174 -11.265228895780766 0 0 0
1779 1 12.091906104101696 2.885109701626538 -14.162632566570537 0 0 0
783 1 12.125751149063948 -0.020366874830440196 -14.156679888128581 0 0 1
111 1 -9.342078088547542 3.0971038943983746 -14.487721206547297 0 0 1
1613 1 -12.194418574748024 5.780572414531052 -11.289435369378559 0 0 0
1777 1 -10.81039785375866 4.265777123540174 -12.89549762937253 0 0 0
1767 1 -10.94877958800613 7.319544371860685 -12.818645451953753 0 0 0
1611 1 -9.36690167948678 5.96125354457598 -11.319333817822478 0 0 0
1631 1 -10.705174977270028 4.326456834577867 -9.995657094738318 0 0 0
1612 1 -10.843536223180665 7.175279163200328 -9.867308243743304 0 0 0
37 1 -9.528716636220611 6.091412045854911 -14.192968129653654 0 0 1
27 1 -12.237213674742765 5.834187101896985 -14.261870546476636 0 0 1
1766 1 -8.242398179111738 7.476918749981346 -12.81285718836908 0 0 0
1776 1 -8.03936343036574 4.582978237754142 -12.897278229617482 0 0 0
1629 1 -7.9211805237443285 4.390566026590141 -10.138001119467901 0 0 0
1614 1 -12.230764144509717 8.653284846930449 -11.219899110370436 0 0 0
1610 1 -8.011243539694965 7.264446285205368 -10.013139532832831 0 0 0
1592 1 -9.634191246096183 8.674188414013623 -11.304225590074527 0 0 0
1626 1 -3.8303794595514766 3.381874836087258 -11.957818748750213 0 0 0
1609 1 -6.7922561449874985 5.952505524940483 -11.5257286046436 0 0 0
1627 1 -5.103325616349771 4.5573728103619136 -10.35068440801792 0 0 0
1765 1 -5.633907584534814 7.501243977653582 -12.960081925453466 0 0 0
1607 1 -3.9463327498411918 6.372358836526866 -11.672207125413198 0 0 0
1608 1 -5.291261197496063 7.493456515389939 -10.029124487323939 0 0 0
112 1 -5.400270755285476 4.713164986298308 -13.193129262307714 0 0 1
122 1 -6.940252344165706 6.071263121974768 -14.408726895376859 0 0 1
1764 1 -2.6131088326995755 7.820082758886629 -13.033039706157382 0 0 0
1775 1 -4.11784189913611 6.3305374001677155 -14.526111728962656 0 0 0
206 1 -6.779362829372274 3.296796672335775 -14.671091144139536 0 0 1
1606 1 -2.484330535375369 7.670355424447456 -10.125075627700145 0 0 0
1774 1 -2.4161904760567303 5.017865542458642 -13.377867449866768 0 0 0
207 1 -3.8193036465086116 3.431673759935544 -14.709853802536866 0 0 1
1625 1 -2.3949338790800745 4.846038812264252 -10.463623228155615 0 0 0
1624 1 -0.9989613579411039 3.556090147519358 -11.990515363509504 0 0 0
1605 1 -1.11914820884782 6.389554371415917 -11.867540247254167 0 0 0
1623 1 0.5414048642790412 4.961650555166836 -10.53337933432875 0 0 0
1773 1 0.2745907396780982 5.1786777223960225 -13.39365521944676 0 0 0
1604 1 0.22806008160853963 7.752850223434452 -10.231261262640217 0 0 0
1763 1 0.21128990182257645 8.054760493010415 -13.188306028456065 0 0 0
1603 1 1.6837067723623207 6.597139740136919 -11.95551701629949 0 0 0
1622 1 1.9478243660271666 3.7672815607432373 -12.136326588252116 0 0 0
1762 1 3.1115157888076155 7.990803832221877 -13.40460771372821 0 0 0
1772 1 3.130716872567607 5.363311600764037 -13.545505960557962 0 0 0
312 1 -1.2404834664389561 6.720167767568709 -14.750136388538586 0 0 1
1441 1 2.1239954563483234 3.5416962717081457 -9.399576758403166 0 0 0
1602 1 3.155839095233265 7.983284229212371 -10.596646790734837 0 0 0
419 1 1.5743264067963683 6.745174209251173 14.588445767670738 0 0 0
1621 1 3.4042097958567616 5.1297894724645285 -10.7642578704328 0 0 0
1601 1 4.589440926078339 6.647278617723318 -12.021729713750052 0 0 0
1620 1 4.827244218563379 3.9199772080684294 -12.233193554917586 0 0 0
1619 1 6.216661784810203 5.262566385712395 -10.738396683424961 0 0 0
1771 1 6.125575338684346 5.45513722479159 -13.779561929644723 0 0 0
1599 1 7.474479448901132 6.933017493779749 -12.311532124718875 0 0 0
1618 1 7.649824404948813 4.063596421718055 -12.347925359258232 0 0 0
1600 1 6.043959625169116 8.131916005749114 -10.70709981682471 0 0 0
1761 1 5.769980171701771 8.342693337640304 -13.468913044010618 0 0 0
1437 1 7.821893026317348 3.821850964208126 -9.457560518708863 0 0 0
1439 1 4.80737743037221 3.6235217048675086 -9.668992339843097 0 0 0
1418 1 7.736240420489828 6.811452332222769 -9.439721667715089 0 0 0
1760 1 8.803552650860528 8.454565679827594 -13.724945407082261 0 0 0
1770 1 8.947239822135423 5.56764399400347 -13.89141474947133 0 0 0
1420 1 4.732163803417354 6.469439262736442 -9.2590197743584 0 0 0
1598 1 8.992504614716324 8.35618009643307 -10.787772982562831 0 0 0
1633 1 -13.411745481005891 4.179370116927812 -10.008736689421688 0 0 0
1415 1 13.336656243291142 6.9945321024712594 -9.744655103171567 0 0 0
1617 1 8.994751997973971 5.440286342629102 -11.036557826004604 0 0 0
1778 1 -13.336934996136934 4.284191048420164 -12.801568210997157 0 0 0
1768 1 13.249608010661724 7.210962915585794 -12.670804258131247 -1 0 0
1597 1 10.264338106100745 6.934841136750558 -12.477211983714088 0 0 0
1615 1 11.9474873671635 5.609000689697622 -11.211300483320706 0 0 0
1616 1 10.59494805270623 4.1133159419634975 -12.642221261205053 0 0 0
1769 1 11.85539306007077 5.643316211392735 -14.035962361021078 0 0 0
1435 1 10.619133080824827 4.007533570391532 -9.62140370012614 0 0 0
1416 1 10.584388002558022 6.700925652403109 -9.618746805656734 0 0 0
1596 1 11.676614885828116 8.402078413593086 -10.999985660050637 0 0 0
2 1 -12.249552862787256 8.692459249044374 -14.285313803579456 0 0 1
1757 1 -9.746542599819337 8.947455401892713 -14.159531472691985 0 0 0
1747 1 -11.223571587842581 13.111238473657641 -12.339874024257364 0 0 0
1575 1 -12.40543253305929 11.490377149319363 -10.942683776655882 0 0 0
1594 1 -10.973216050643217 10.139154575000324 -12.516626641979396 0 0 0
1758 1 -12.56515657403104 11.54495976545576 -13.823306530283887 0 0 0
1573 1 -9.70226825875216 11.633154921718953 -11.035553256419885 0 0 0
1746 1 -8.557354922970394 13.29274682552274 -12.449975053117338 0 0 0
1593 1 -10.862799364864092 9.993384959598037 -9.667834507998716 0 0 0
46 1 -9.809265173006615 11.830224777356568 -13.860261283558618 0 0 1
1756 1 -8.271323922827136 10.36520272206773 -12.688470138872008 0 0 0
1572 1 -8.424885970085082 12.984040493976439 -9.613650530650931 0 0 0
1591 1 -8.283522359708604 10.247213641493508 -9.676350223268035 0 0 0
1574 1 -11.120202300329582 12.832199827051946 -9.440220413813012 0 0 0
1744 1 -2.99188149349391 13.581952828255035 -12.809781299216548 0 0 0
1568 1 -2.773172975292283 13.465235415509982 -9.85223020568304 0 0 0
1590 1 -6.809732022309293 8.947928784482885 -11.328842164824824 0 0 0
1588 1 -4.0784036177633 9.202807640826821 -11.490887042752153 0 0 0
132 1 -7.100772292369029 9.061019856337632 -14.331767778753708 0 0 1
227 1 -4.296764129478328 9.129930919089729 -14.293418877886607 0 0 1
1835 1 -5.8040130738476154 13.429254597859066 -12.668483957968444 0 -1 0
1570 1 -5.579475838068384 13.29219462713626 -9.713170934257544 0 0 0
1571 1 -6.95612797012353 11.899494430113029 -11.232477225119052 0 0 0
1745 1 -7.172588467717974 11.90454294483863 -14.047527205807741 0 0 0
1755 1 -5.7052773038152855 10.452668891533753 -12.784837524832149 0 0 0
1569 1 -4.160106102602189 12.04603464250196 -11.25448777961491 0 0 0
1589 1 -5.414790069747809 10.432736156149092 -9.87507482649243 0 0 0
231 1 -4.268219195877899 12.14652949363216 -14.235768907667136 0 0 1
1754 1 -2.799560235997898 10.610982133692824 -12.950765943465377 0 0 0
1587 1 -2.568664992351419 10.622686732296282 -10.112490280505678 0 0 0
1743 1 -0.07271715556209912 13.60183831197279 -12.946578062384141 0 0 0
1564 1 2.999287723639352 -13.580582864900215 -10.31258834592463 0 1 0
1566 1 -0.012114415063301465 13.540717178814385 -9.947233373053457 0 0 0
1586 1 -1.2079667174915798 9.330685910491285 -11.61264999961466 0 0 0
1567 1 -1.3597510814216047 12.09729725032472 -11.450042054847144 0 0 0
1585 1 0.19728854552288588 10.823527509250377 -10.164314551919535 0 0 0
1753 1 0.07683161664735749 10.931150729685465 -13.1129766418621 0 0 0
1565 1 1.5036306856860904 12.238278839512505 -11.635851103202988 0 0 0
1584 1 1.6387140616743174 9.532189809352753 -11.766349977393439 0 0 0
328 1 -1.662910534098291 12.085353236971892 -14.240659223536182 0 0 1
1752 1 2.8935275518268746 10.990778185987958 -13.259294148887722 0 0 0
428 1 1.2372822922108924 12.421344132014793 -14.558272533073994 0 0 1
1583 1 3.1293637327987796 10.92062223384587 -10.203313254519838 0 0 0
427 1 1.6003835912042952 9.561892550371942 -14.679499138311858 0 0 1
322 1 -1.4859211602154048 9.521000294687072 -14.491688770115177 0 0 1
1563 1 4.402600687559811 12.24902511181626 -11.805882113714688 0 0 0
1582 1 4.392782652319404 9.600630604227666 -11.999007514238784 0 0 0
1581 1 6.0297979628658105 11.034408129866007 -10.444546498462948 0 0 0
1751 1 5.842858133454062 10.965806337885082 -13.44954880308031 0 0 0
1561 1 7.239448662154157 12.422334900040243 -12.051786478529355 0 0 0
1580 1 7.381868021387469 9.619439993009474 -12.03610673385506 0 0 0
1750 1 8.713907418234541 11.318801846961486 -13.64193380322528 0 0 0
1579 1 8.793129876148011 11.13777806422989 -10.72915646198087 0 0 0
527 1 4.237855554453358 12.433616352784759 -14.700611921287837 0 0 1
1399 1 7.5251628243608195 9.494545714217884 -9.222289121274308 0 0 0
1740 1 7.0096639743816525 12.662104450854033 14.667969306989288 0 0 -1
1759 1 11.72322328588421 8.54036747734162 -13.9128552319405 0 0 0
1595 1 13.206466136964696 9.824135804997654 -9.650971876947064 -1 0 0
1748 1 12.946507070650526 12.938383786463271 -12.257852664524913 -1 0 0
1558 1 11.759484111840486 11.350662295840456 -11.015897917564471 0 0 0
1559 1 10.208822905332227 12.723630886636984 -12.295532019023337 0 0 0
1577 1 13.225465423843442 9.960634392020614 -12.480913627672795 0 0 0
1578 1 10.27985576329474 9.877340369738663 -12.336482976149776 0 0 0
1749 1 11.672683841080268 11.26393762448854 -13.789553742739672 0 0 0
1576 1 12.977747605838228 12.716722016532492 -9.380671611096254 -1 0 0
1378 1 10.231561116894312 12.55404110612128 -9.181625220627373 0 0 0
1397 1 10.430515946958153 9.70327105763691 -9.380865854553935 0 0 0
1365 1 -11.07277697481426 -11.629733810307682 -6.416786889873899 0 0 0
1545 1 -9.877464913572027 -10.043637471017629 -7.835195178074812 0 0 0
1547 1 -12.604480706110271 -10.264842307349916 -7.814137258635438 0 0 0
1556 1 -9.551020868913792 -12.941940624662632 -7.973191318021012 0 0 0
1346 1 -11.317883948241843 -8.722057867203421 -6.413356745632523 0 0 0
1344 1 -8.46804893790764 -8.664729331496721 -6.3439334080175325 0 0 0
1364 1 -9.618312931681029 -10.230962477722436 -4.988277656265165 0 0 0
1366 1 -12.405896944608061 -10.262459475051092 -4.804909001657959 0 0 0
1363 1 -8.30941181282514 -11.41782236405712 -6.5763006451283275 0 0 0
1375 1 -9.569817727162683 -13.083636384845327 -5.183183514309562 0 0 0
1376 1 -12.397276462969199 -13.24168191009851 -4.940945309542215 0 0 0
1557 1 -12.404695572607565 -13.111669908023059 -7.935882815043406 0 0 0
1182 1 -8.18423849054901 -11.610768468974003 -3.696597627860111 0 0 0
1360 1 -4.0208261272521 -9.861196174950619 -5.2633966234096405 0 0 0
1361 1 -5.633590786324991 -11.345998863890589 -6.77959530661332 0 0 0
1373 1 -4.075407067852344 -12.719699772603011 -5.2488908564327925 0 0 0
1374 1 -6.8726592779282845 -12.863574853193771 -5.33176528486559 0 0 0
1541 1 -4.179076301579197 -9.800918143289602 -8.149081854953241 0 0 0
1543 1 -7.091784739247651 -9.950826995220265 -7.9809971382546525 0 0 0
1554 1 -4.182960584735174 -12.59060358410186 -8.181593864737021 0 0 0
1555 1 -6.893841041092682 -12.864776270423938 -8.154715976789848 0 0 0
1342 1 -5.575822207524859 -8.504255156864016 -6.583362780621696 0 0 0
1362 1 -6.838076640923209 -10.069828818869887 -5.093039589370152 0 0 0
1340 1 -2.728069798399112 -8.361870592505745 -6.776068158469302 0 0 0
1359 1 -2.6704500810889087 -11.274588408809105 -6.822165363382392 0 0 0
1178 1 -2.5680658230199036 -11.271946198139835 -3.9939553467608935 0 0 0
1180 1 -5.410406319333411 -11.483977955269577 -3.876068023568605 0 0 0
1159 1 -2.644231606883455 -8.43490558055401 -3.9037912067222607 0 0 0
1161 1 -5.500442251520014 -8.611491281710551 -3.856515735062084 0 0 0
1358 1 -1.1948411418642113 -9.808355166414097 -5.395681506042088 0 0 0
1372 1 -1.1042084451076644 -12.64061510888728 -5.533826318513686 0 0 0
1539 1 -1.3845138457594768 -9.755362674190161 -8.24500315684749 0 0 0
1553 1 -1.2567162446094553 -12.484036024157582 -8.468774318791624 0 0 0
1357 1 0.1543031358601823 -11.024765082765514 -7.108985370908788 0 0 0
1371 1 1.6995209189282292 -12.400634829226302 -5.747339156804639 0 0 0
1537 1 1.3551787717639456 -9.551976303734282 -8.555415882343372 0 0 0
1552 1 1.5679489464227672 -12.406996267939101 -8.670365120808722 0 0 0
1356 1 1.5079950025059148 -9.585517599519635 -5.643838766125473 0 0 0
1176 1 0.21884790985482994 -11.22913292679101 -4.140917518357059 0 0 0
1157 1 0.25920761203333065 -8.323490059921589 -3.991629371154442 0 0 0
1355 1 2.9543201515433815 -10.83211327705665 -7.176599787587622 0 0 0
1173 1 3.133196628229747 -11.021926669764603 -4.300821802884892 0 0 0
1338 1 0.1212392292145612 -8.166741744993349 -6.80672102961649 0 0 0
1155 1 2.944863169024586 -8.241857660644524 -4.255473230075205 0 0 0
1383 1 3.05751520078519 13.60111974067402 -7.262504451572268 0 0 0
1550 1 7.303107314263521 -12.141855747856622 -8.959257547088958 0 0 0
1353 1 5.848034847538322 -10.795387814772884 -7.502118338639558 0 0 0
1535 1 4.3046883820699655 -9.336670540658016 -8.641591248521765 0 0 0
1551 1 4.480648809148917 -12.260303550700028 -8.79373501707413 0 0 0
1352 1 7.122833949570595 -9.324501422613665 -6.104207243840204 0 0 0
1369 1 6.047202756395482 -10.915724497360973 -4.516849412596207 0 0 0
1533 1 7.184767282546456 -9.210043244513297 -8.792931247968884 0 0 0
1354 1 4.360940696357474 -9.439902168051145 -5.749398924755445 0 0 0
1370 1 4.6575151997448 -12.218579803183182 -5.967434441836371 0 0 0
1368 1 7.4526544192791455 -12.278538849402832 -6.141264623519948 0 0 0
1351 1 8.670495176277694 -10.588645428190356 -7.56090819605165 0 0 0
1379 1 8.866701298820292 -13.517488919845992 -7.624453978033298 0 1 0
1170 1 8.729073366510903 -10.550762564897983 -4.8152947155326675 0 0 0
1381 1 5.959689309792736 -13.655732114290865 -7.473251270422469 0 1 0
1729 1 12.88719019983786 -11.65797673352503 -9.180981105096699 0 0 0
1198 1 9.049027353177351 -13.572426002107523 -4.856523706349289 0 1 0
1549 1 10.040093800608435 -11.851392370994844 -9.057305577856539 0 0 0
1529 1 12.735367878767672 -8.827061423270914 -9.105335837150283 0 0 0
1531 1 9.964343657784546 -8.970703114280521 -9.029578097041053 0 0 0
1367 1 13.14013231041573 -11.869424492342905 -6.308520036089934 0 0 0
1349 1 11.419269061950015 -10.382887383861837 -7.5568479255863945 0 0 0
1350 1 10.033268637590925 -9.025650804707574 -6.173725664116171 0 0 0