LAMMPS data file via write_data, version 29 Sep 2021, timestep = 0

1866 atoms
3 atom types

-14.387631158488354 14.387631158488354 xlo xhi
-13.873687900952032 13.873687900952032 ylo yhi
-13.682902390534784 13.682902390534784 zlo zhi

Masses

1 55.847
2 1.008
3 1.008

Atoms # atomic

330 1 -13.818288910621533 -12.247123134482965 -12.180912268387416 0 0 1
113 1 -11.926458373965225 -12.023164312131112 -10.678007634867985 0 0 0
523 1 -11.599921690387374 -12.906881808033999 -13.205484659699005 0 1 0
478 1 -9.729790637007547 -12.6701456091742 -11.739930015422342 0 1 0
111 1 -11.428439190347916 -10.619105181101906 -12.56912664324316 0 0 0
1102 1 -0.09735410898669627 -5.1855130882583556 -3.8634228250195246 0 0 0
89 1 -7.471755122431511 -13.18226967254024 -12.852922122309018 0 0 0
79 1 -7.4449125760725305 -10.846164575289025 -12.01274426015526 0 0 0
752 1 -5.684361728033421 -13.003734500358883 -11.143037830248113 0 1 1
257 1 -5.342144425354688 -11.478211987986862 -12.973361180623028 0 0 1
28 1 -3.3346980612690764 -11.280226090914214 -11.433720697386098 0 0 0
19 1 -3.5153215812739873 -13.615168020842003 -12.303929581066711 0 0 0
91 1 -5.6363167842274375 -10.624204881786808 -10.24894523758723 0 0 0
49 1 -1.2597976147705126 -11.998256495948397 -12.541316880293738 0 0 0
471 1 -1.7942882970320504 -13.519807366041906 -10.581929653169503 0 1 0
181 1 -13.552419525882879 -9.899425111927506 -11.377576069223842 0 0 0
192 1 -13.537330609933191 -7.468465077503921 -10.562223025352768 0 0 0
1032 1 -13.141273284574126 -8.470604397827803 -13.340893550823113 1 0 0
151 1 -11.429068094438977 -8.248900560748218 -11.79423284170307 0 0 0
90 1 -9.731236981238855 -10.246016973869658 -10.967267973729346 0 0 0
204 1 -9.266602499263342 -8.739704291321608 -12.955577040161234 0 0 0
152 1 -7.464358643102004 -8.573004256778367 -11.177726634499535 0 0 0
122 1 -6.95000039521202 -7.083845800485293 -13.151983127292683 0 0 0
60 1 -5.193643834726069 -9.15197488490892 -12.200156715901315 0 0 0
80 1 -3.343917891245182 -8.947074263593839 -10.597708301439178 0 0 0
258 1 -3.0399144737650374 -9.673038988758627 -13.453039177647607 0 0 1
54 1 -2.9794865672186077 -7.382387425957823 -12.629342453112086 0 0 0
35 1 -1.147797692309977 -9.649974173944411 -11.649529165761184 0 0 0
61 1 -1.1663253154383213 -7.19128321146346 -10.980485370020562 0 0 0
676 1 -8.099950068410006 -1.1375064981668874 -1.5105515733079447 0 0 0
1037 1 -13.099236465929895 -6.152377810305768 -12.707967108915001 1 0 0
163 1 -13.135122809228172 -3.714343502668406 -11.94837085524981 0 0 0
203 1 -11.2557772111142 -5.828804670240283 -11.039535213162601 0 0 0
333 1 -9.102682335834269 -6.359523743265936 -12.126551479381371 0 0 1
164 1 -10.906704460783713 -4.299289737506774 -13.039073678128227 0 0 0
220 1 -9.126875661568423 -4.111500351910109 -11.217234390278424 0 0 0
59 1 -0.3487165249458464 -2.006083138510059 -0.3290599239944161 0 0 0
221 1 -6.984302798357033 -4.70182822083709 -12.52846932093484 0 0 0
124 1 -7.421902362578986 -6.180877948779532 -10.39639445974789 0 0 0
123 1 -5.105986910146019 -6.847520845952863 -11.548965836080786 0 0 0
94 1 -5.133441141428994 -4.54410707881177 -10.854797288799208 0 0 0
92 1 -4.906333119296402 -5.384905511017834 -13.653816765652842 0 0 0
93 1 -2.9930886893647592 -5.137114037643411 -11.93885583660864 0 0 0
1237 1 -0.814859587599841 -5.851114298952103 -12.962272636425354 0 0 1
64 1 -0.5748392731017393 -3.4615316899221025 -12.110623632211453 0 0 0
55 1 -1.253208388518697 -4.907309135907012 -10.226790378851721 0 0 0
141 1 -13.053830142772025 -1.3699601406035526 -11.103339437702623 0 0 0
171 1 -10.838550835303396 -2.012242331009457 -12.3320242640353 0 0 0
169 1 -9.001365979208195 -1.7473350750956183 -10.668520244043943 0 0 0
174 1 -8.778911315814113 -2.6791962180073234 -13.374889161257622 0 0 0
173 1 -8.659123894641851 -0.2819923147300827 -12.548891226448818 0 0 0
162 1 -11.177166409666063 -3.50173787148508 -10.267965039007436 0 0 0
172 1 -6.793186417376535 -0.12834631055991608 -10.937014791631555 0 0 0
228 1 -6.94783549241843 -2.4565925545222598 -11.908743837749086 0 0 0
58 1 -2.163317000736157 -2.2086310240690956 -2.0114009533811217 0 0 0
229 1 -4.729357662364823 -3.0022800075374683 -12.70812962184172 0 0 0
231 1 -4.601193107233909 -0.6781630564500567 -12.026181043941461 0 0 0
65 1 -2.795040795272042 -2.78210670483155 -11.15615712918817 0 0 0
230 1 -2.809983538720882 -0.5071004654345614 -10.27602106396495 0 0 0
232 1 -2.5502601395021287 -1.242670699081188 -13.151793208204907 0 0 0
2 1 -0.5786958360161574 -1.0222453097455322 -11.344312575502533 0 0 0
595 1 -14.336196850292346 -13.759086715257993 -10.248978722084933 0 1 0
526 1 -12.238900894145804 -13.494962338882772 -8.67622171471893 0 1 0
212 1 -12.03843561055266 -11.052829098977679 -7.905370995299239 0 0 0
211 1 -13.906965326103808 -11.365218663609303 -9.389814797788436 0 0 0
114 1 -9.939165928726558 -11.674956595855967 -9.158491134342277 0 0 0
132 1 -10.31351609610504 -13.196909023761034 -7.280141646490472 0 0 0
115 1 -8.108674228126986 -11.489944870789913 -7.330859353563862 0 0 0
18 1 -7.839279430299766 -12.341894499188651 -10.12269306259522 0 0 0
16 1 -6.065224603171741 -12.084205613878867 -8.51220818722215 0 0 0
178 1 -14.280518060605221 -5.757548030667351 -5.294437346600738 0 0 0
17 1 -3.7258334105394475 -12.763643754000096 -9.410832962501237 0 0 0
26 1 -3.7423286754993104 -10.331831993199547 -8.633531358513235 0 0 0
15 1 -4.2354956670266795 -11.884358576242278 -6.77789010398781 0 0 0
48 1 -2.040812972358193 -12.749616051359048 -7.830461966106333 0 0 0
27 1 -1.604601467818286 -11.184720019019453 -9.707764511334027 0 0 0
182 1 -11.838192161332799 -9.662180896982036 -9.868503410515498 0 0 0
191 1 -11.820129285467626 -7.313462116270207 -9.09512829475484 0 0 0
1062 1 -13.986409385755882 -9.074849835430973 -8.66036512950173 1 0 0
175 1 -12.17977669636614 -8.755864190785077 -7.113853811409886 0 0 0
153 1 -9.627772911683506 -7.842667217666353 -10.213642448753308 0 0 0
183 1 -10.000878557041098 -9.360012094914337 -8.179925757160092 0 0 0
103 1 -7.728644558537286 -10.086089252677512 -9.310792046310391 0 0 0
104 1 -5.957826397424469 -9.715117399104816 -7.639391464770774 0 0 0
154 1 -7.694633722977655 -7.611290815823933 -8.556949608077401 0 0 0
83 1 -6.045021268688345 -7.478986237413774 -6.878970801188161 0 0 0
81 1 -5.642376718479182 -8.405019205842278 -9.591931365105197 0 0 0
82 1 -3.8390608634758188 -7.969300093014523 -7.827800767775644 0 0 0
25 1 -1.9609702296329932 -10.211111767567306 -6.949667557928819 0 0 0
34 1 -1.5290035292333197 -8.74432922113764 -8.985335262368949 0 0 0
144 1 -13.513718715986482 -5.239681368435166 -9.906470625342315 0 0 0
143 1 -13.837323605848223 -4.37114509863369 -7.250759159565178 0 0 0
190 1 -13.934879617204254 -6.77367551041624 -7.894218058860316 0 0 0
201 1 -11.6750000080343 -4.987829400329646 -8.321613600326142 0 0 0
155 1 -9.946085476467218 -7.084507172242324 -7.470212561584018 0 0 0
202 1 -9.435038554283139 -5.575901752698773 -9.448700301663482 0 0 0
126 1 -7.69412560630734 -5.288823823441101 -7.903429853243249 0 0 0
219 1 -7.241488109890833 -3.64467101388615 -9.80727589136287 0 0 0
125 1 -5.6136852154134935 -5.943171114249327 -8.830381403705026 0 0 0
62 1 -3.4120714732549438 -6.693633310553496 -9.979136014977904 0 0 0
73 1 -3.6792180732168305 -5.6199817693823935 -7.204786958858078 0 0 0
95 1 -3.188706556620449 -4.2992747037547066 -9.155507467293386 0 0 0
96 1 -5.267839706905217 -3.649641914711818 -8.116609789901283 0 0 0
63 1 -1.556935188800633 -6.393375989307059 -8.381750216376112 0 0 0
97 1 -1.4359168068821067 -3.9560383203521052 -7.411833791178507 0 0 0
161 1 -13.52282146013156 -2.8416794919706714 -9.061581899757506 0 0 0
140 1 -13.41192786652787 -0.4338598720759048 -8.477878692799322 0 0 0
150 1 -11.610264280898217 -2.5550518955967068 -7.460290902455673 0 0 0
166 1 -11.53580754248833 -0.21527423695449066 -6.9459987339453875 0 0 0
168 1 -11.144993875603994 -1.2054487179933986 -9.532175149316874 0 0 0
217 1 -9.43529656024343 -3.12509154326656 -8.683061383131818 0 0 0
167 1 -9.423456064008901 -0.7883194909090765 -7.8468267617649134 0 0 0
226 1 -7.185516605414431 -1.5326993809028036 -8.884242462161076 0 0 0
215 1 -7.570275080784439 -2.9490398980085573 -6.94883052301321 0 0 0
224 1 -5.266694113946475 -1.2669103951409362 -7.445398323748042 0 0 0
227 1 -4.9815997301674635 -2.2903802037337258 -10.194062018118306 0 0 0
225 1 -3.1309265674339013 -1.9970827935110051 -8.43084761476366 0 0 0
683 1 -0.9192870774279793 -0.23364794806733968 -8.743516564772595 0 0 0
67 1 -1.0012565846198385 -2.6075512871694286 -9.440255947216063 0 0 0
133 1 -12.488855812375284 -12.66278810360581 -6.142173647375695 0 0 0
137 1 -12.33764062657589 -11.984781653353407 -3.7664354344270663 0 0 0
1054 1 -14.338372438903733 -10.562728519926225 -6.5700489779278275 1 0 0
116 1 -10.211293042917301 -10.840429774730957 -6.33617549458769 0 0 0
134 1 -10.372459430079735 -12.455496623249878 -4.736651578028567 0 0 0
117 1 -8.587373696850936 -10.57374104568612 -4.663027230370917 0 0 0
8 1 -8.42911233137636 -13.158159127227021 -5.555297901706208 0 0 0
14 1 -6.45758914346226 -11.23806802213867 -5.605159415790293 0 0 0
7 1 -6.920589759010079 -12.797879309818992 -3.762121498589824 0 0 0
9 1 -6.3607492885575105 -13.819416891209023 -6.600896626145117 0 0 0
13 1 -4.620864669999026 -11.179559842003066 -4.0356526015953715 0 0 0
41 1 -4.73593572669259 -13.426399063870523 -4.781524685524909 0 0 0
46 1 -2.434116930775277 -11.669853808478257 -5.196922154098656 0 0 0
45 1 -0.605016826785425 -11.35602807136791 -3.471626041046667 0 0 0
47 1 -0.1479161897741541 -12.35779890058 -6.198439209918098 0 0 0
206 1 -6.115449829519905 -1.8820703523598379 -2.757515907836339 0 0 0
214 1 -12.475735669570962 -10.254862330085613 -5.263047415910718 0 0 0
187 1 -12.53776755050346 -7.896607078867141 -4.329398734535275 0 0 0
185 1 -10.403760651709009 -8.494693076488456 -5.406230155948673 0 0 0
118 1 -10.67984981475732 -9.969411937701771 -3.619245811284804 0 0 0
107 1 -8.564346467739648 -8.2447606288608 -3.8249604183258104 0 0 0
105 1 -8.199826152435438 -9.142459824949018 -6.572684574632808 0 0 0
106 1 -6.399763220263147 -8.851937308930331 -5.005320569336771 0 0 0
24 1 -4.219995632641611 -9.57251723945097 -5.88999493003221 0 0 0
84 1 -4.124126801563019 -7.119441734605768 -5.262830038836212 0 0 0
23 1 -2.497039133287494 -9.285552021327382 -4.28047841297874 0 0 0
33 1 -1.8800092844209502 -7.762631631842336 -6.183462090605221 0 0 0
1114 1 -0.2276043632191822 -9.88495440784876 -5.390391434207626 0 0 0
32 1 -2.350573885777006 -6.823144378931464 -3.5534833148226124 0 0 0
1096 1 -0.09062353167082549 -7.480810192666962 -4.627052405533291 0 0 0
179 1 -12.17176572818951 -6.531446373760521 -6.399772001516655 0 0 0
199 1 -11.993494081790958 -4.077305916941631 -5.590452242161632 0 0 0
159 1 -12.441101854533745 -5.493889547225805 -3.617821128250853 0 0 0
424 1 -11.011856314644177 -6.702360877445093 -0.025985577123039505 0 0 0
200 1 -9.871095736666685 -4.665008997016651 -6.667404783206969 0 0 0
157 1 -10.346149756026799 -6.195507959093497 -4.652756002298535 0 0 0
198 1 -10.118433971170054 -3.7414142506181314 -4.099882498333594 0 0 0
156 1 -8.12472073911556 -6.683109996488298 -5.867032246587147 0 0 0
85 1 -6.305391536830818 -6.540146716465592 -4.101760650117635 0 0 0
128 1 -7.920345324297261 -4.534601703477467 -5.0010210860783175 0 0 0
127 1 -5.786089522027526 -5.113229514487019 -6.20018208497344 0 0 0
75 1 -4.098318338970138 -4.773300624321676 -4.417551624346276 0 0 0
98 1 -3.4911116947990735 -3.283949672404786 -6.342566907653282 0 0 0
74 1 -1.9183845764191876 -5.511775900313758 -5.443625292361437 0 0 0
430 1 -10.555767518983654 -2.956446759701592 -1.293615793437004 0 0 0
197 1 -14.24089491870589 -3.4716279399203973 -4.609682215322406 0 0 0
147 1 -14.142656697500378 -1.050913489479706 -3.82694113958563 0 0 0
149 1 -13.758780955109906 -1.971363755902594 -6.518213024101011 0 0 0
148 1 -11.902169184337668 -1.6266609463623105 -4.874334901751853 0 0 0
213 1 -9.616626179451206 -2.3225638169012566 -5.931039936418763 0 0 0
1727 1 -14.36894125533395 -12.874994917950161 -0.5373651528387686 1 1 0
207 1 -8.018882999554048 -1.9635167087169751 -4.2881064015015085 0 0 0
165 1 -7.418740133476715 -0.6479477477480771 -6.3434016568783 0 0 0
222 1 -5.605260424696699 -0.29055751544816566 -4.546536721818837 0 0 0
208 1 -5.700477413439195 -2.669875978448813 -5.433286067512439 0 0 0
100 1 -3.919227269325429 -2.384595269143336 -3.7144896743276608 0 0 0
223 1 -3.532243439739146 -0.9926391807180472 -5.652963273202078 0 0 0
69 1 -1.2663108360038553 -1.6704764263797998 -6.697290739369949 0 0 0
99 1 -1.6685327867954793 -3.1240767733054007 -4.726769869467487 0 0 0
71 1 -1.694977642222824 -0.714375870220028 -3.993258102583704 0 0 0
1077 1 -13.996121951581593 -11.598258720619896 -2.5021043437076678 1 0 0
50 1 -0.7890612246741284 -8.07626446891837 -0.09229578789513404 0 0 0
422 1 -13.523004064469927 -10.714446356803842 -0.285155021270306 0 0 0
686 1 -12.506111937187397 -13.532051176128205 -1.6909515824181902 0 1 0
1630 1 -4.363071874344147 -1.6396555719314136 -1.0453168611786037 0 0 0
136 1 -11.224247548278875 -11.481722090839716 -1.7193136427052416 0 0 0
6 1 -9.018946588881967 -12.13737225480476 -2.7683026415566854 0 0 0
518 1 -9.516164197911642 -13.646225422613027 -0.7953146615790612 0 1 0
5 1 -7.291295111234769 -11.870833386223786 -1.0171005153474884 0 0 0
38 1 -3.187353707251514 -12.2022675619498 -0.5531582175404424 0 0 0
39 1 -5.090649364716402 -12.586408627725206 -2.0362714669826314 0 0 0
40 1 -2.93580445081062 -13.25879696848109 -3.019205356282443 0 0 0
44 1 -2.688788788066292 -10.940466631679826 -2.4648914243862787 0 0 0
52 1 -1.016372078059069 -12.797608793768884 -1.5518262369659812 0 0 0
43 1 -0.9442216572670592 -10.529572006678219 -0.8094503873743903 0 0 0
216 1 -12.88157351325509 -9.513055311310655 -2.534455413169093 0 0 0
1070 1 -12.910274229303955 -7.045329900728176 -1.6745277181024374 1 0 0
425 1 -11.176251586095301 -9.143886889355908 -0.7666077652016892 0 0 0
119 1 -8.958407951197577 -9.616668953974282 -1.8188664085516795 0 0 0
120 1 -10.709601025616468 -7.675842375326749 -2.84560936782856 0 0 0
109 1 -8.844842610362843 -7.33173828785751 -1.165442790029255 0 0 0
12 1 -6.766207228164824 -10.415448657924449 -2.850809280931399 0 0 0
10 1 -6.984973049297129 -9.30919205460551 -0.20844136859315832 0 0 0
108 1 -6.822230299703073 -7.947732313972179 -2.23764885760467 0 0 0
22 1 -4.652314054114537 -8.65919457407183 -3.380586656099956 0 0 0
11 1 -4.903165449709295 -10.210834305956013 -1.4058150645271859 0 0 0
20 1 -4.9666622831755465 -7.782710676405721 -0.6400227080891749 0 0 0
21 1 -2.7632230526922044 -8.426738180457134 -1.731040530474477 0 0 0
51 1 -0.6261138541808542 -9.04062225724293 -2.673700082696202 0 0 0
677 1 -3.87341800693204 -0.14978212238531619 -2.8824422867464268 0 0 0
177 1 -12.898830212011946 -4.683615025654735 -0.9061240208400054 0 0 0
160 1 -10.675247798401854 -5.189107021954758 -2.0081788467319104 0 0 0
423 1 -8.692165323975413 -4.920250424731504 -0.4694319116337837 0 0 0
131 1 -6.456944723987076 -3.384571177843341 -0.5481881777764865 0 0 0
130 1 -8.429580432792116 -3.459221954048246 -2.3327927732402003 0 0 0
129 1 -6.273547055450168 -4.126423289655415 -3.4317699565065585 0 0 0
158 1 -8.468826492070459 -5.856033518377027 -3.082113418027973 0 0 0
87 1 -6.568239592196009 -5.626665321116814 -1.52053327697414 0 0 0
86 1 -4.597559576808315 -6.322301677760577 -2.4824534917555425 0 0 0
77 1 -4.452562342082807 -3.944629453967039 -1.6973439031566677 0 0 0
78 1 -2.693345586221872 -3.726946488327279 -0.1850520701532563 0 0 0
30 1 -2.6736598908454656 -6.108615870415196 -0.8232644061049221 0 0 0
36 1 -0.46565404166637236 -4.302380659000361 -1.223581178131269 0 0 0
31 1 -0.5757631566953094 -6.567580135623872 -1.8729505257397392 0 0 0
76 1 -2.2120372967887043 -4.5099211897316955 -2.8323359771989463 0 0 0
205 1 -12.649736185086986 -2.3002512210015755 -0.23589608454445354 0 0 0
196 1 -12.398950253276988 -3.180316384034459 -2.9882762857728977 0 0 0
982 1 -12.326999506537046 -0.7813655231318091 -2.079484409970105 1 0 0
1445 1 -10.450316523740288 -0.6020966197234028 -0.5485011229866199 1 0 0
146 1 -10.089904651945462 -1.3984342450760199 -3.1680241820242934 0 0 0
1078 1 -14.28842982229138 -13.773446236114816 -3.3314602005522644 1 0 0
53 1 -0.6065487591337444 -13.765575875189652 -4.210525098814731 0 0 0
342 1 -9.306804141816647 -11.032628617862212 -13.50999808469118 0 0 1
482 1 -8.117914152952627 -13.799025054237594 -8.269179722426568 0 1 0
428 1 -13.772080176136782 -12.066917388282778 1.6781136954027431 0 0 0
448 1 -11.98551790063094 -11.93646866643162 3.207522756418088 0 0 0
3 1 -11.641986566061785 -12.787214132486863 0.40690053807626114 0 0 0
234 1 -9.799401733111626 -12.630773200287777 2.0843187069428666 0 0 0
293 1 -8.304294034347595 -13.779482637061594 5.696611112815473 0 0 0
255 1 -7.655167527158548 -13.339189055753325 0.9734775875470749 0 0 0
236 1 -7.481350617739289 -10.745368565306388 1.6953329286815713 0 0 0
244 1 -5.702740026187202 -13.015832339920305 2.558947094176352 0 0 0
256 1 -5.275516008735202 -11.552624452073744 0.6059129703001922 0 0 0
246 1 -3.5037776630098634 -11.251233161691452 2.203602094943978 0 0 0
468 1 -3.614118650901414 -13.73829184840124 1.3853547970191915 0 1 0
245 1 -5.614329829356125 -10.669613289624845 3.2802896615841046 0 0 0
1130 1 -1.2923181015428824 -11.906779969445173 1.1653197912489333 0 0 0
249 1 -1.8960273792405946 -13.51042929756016 3.0584042919671486 0 0 0
427 1 -11.49400304109638 -10.525615700230329 1.1702878887425392 0 0 0
435 1 -13.623522363935303 -9.82283422063739 2.3061465972479933 0 0 0
434 1 -13.518352261056213 -7.478354329775686 2.970461396681289 0 0 0
218 1 -13.193235995988207 -8.344137334697523 0.39183147433369747 0 0 0
426 1 -11.337018050995924 -8.16998447577447 1.8815447482936403 0 0 0
446 1 -9.73274210380658 -10.18720094951543 2.8382463204338304 0 0 0
254 1 -9.298071763889887 -8.888983010859807 0.8608724128125544 0 0 0
237 1 -7.4043606959799115 -8.491235699395206 2.4390418313098667 0 0 0
110 1 -7.0313675036298315 -7.06261121844397 0.4569693500976868 0 0 0
238 1 -5.209238386159521 -9.136174196300892 1.3719224641710799 0 0 0
247 1 -3.412705840684069 -9.022683317366665 3.0076552482086125 0 0 0
42 1 -3.232057789874373 -9.92493210477809 0.12033496232198537 0 0 0
240 1 -3.1334512835007047 -7.626952605683193 1.005956100479576 0 0 0
250 1 -1.4568797980310997 -9.56171699869251 1.7741682413073203 0 0 0
248 1 -1.1418618262560187 -7.343398331502052 2.645685322262585 0 0 0
433 1 -13.263450352517465 -6.017150240852429 1.1151854764577127 0 0 0
195 1 -13.005623057179815 -3.721681438016642 1.6986655691668577 0 0 0
432 1 -11.259416655388243 -5.799935246869831 2.579986209098939 0 0 0
444 1 -9.210463138861511 -6.470473987550432 1.4581026999105546 0 0 0
189 1 -10.998696584715695 -4.406219348294002 0.6178730324725414 0 0 0
456 1 -9.167070680750964 -4.163612556697656 2.3257236670858443 0 0 0
442 1 -7.024013336059085 -4.80570406462377 1.3091762062339942 0 0 0
445 1 -7.462667755299412 -6.329238027288301 3.246374034661999 0 0 0
239 1 -5.270124072895436 -6.845277961762345 2.170104035474452 0 0 0
417 1 -5.131101238353269 -4.573209746176106 2.9276131824062777 0 0 0
241 1 -3.1223560815216835 -5.26506459711212 1.8801459707786297 0 0 0
88 1 -4.973439475349949 -5.506445445487895 0.2630551610148899 0 0 0
1228 1 -0.8763595302631941 -5.74412707641242 0.7715409133150093 0 0 0
301 1 -0.7476975314162537 -3.4984605388828864 1.4405230263278597 0 0 0
436 1 -12.998030250964819 -1.4299379501234117 2.5311808346406313 0 0 0
431 1 -10.920533592336893 -1.914968189609647 1.4679877483322166 0 0 0
453 1 -9.05212645646144 -1.815647036919449 2.9794712307048687 0 0 0
452 1 -8.650642935474998 -2.592411903234316 0.4543360318184728 0 0 0
853 1 -8.747592863911308 -0.2994524434262491 1.146862907056919 0 0 0
454 1 -6.8235292496990745 -2.3811360840094746 2.071898614975934 0 0 0
259 1 -0.9264889340052953 -8.189412968169776 13.582118552486618 0 0 0
440 1 -4.723922123044941 -2.9955868488878785 1.099144695183906 0 0 0
439 1 -4.642072884362891 -0.5059099959357933 1.674196605907051 0 0 0
419 1 -2.9949306393081603 -2.7830398931817513 2.521450049804285 0 0 0
420 1 -2.896228642140777 -0.42193446259997636 3.4463476795374763 0 0 0
242 1 -2.6426587602951557 -1.4236240402010232 0.5795273308258011 0 0 0
421 1 -0.7215120077784931 -1.2282151499018834 2.3131668162358583 0 0 0
450 1 -12.31202772797036 -13.350191579849822 5.2033249207519905 0 0 0
449 1 -12.220029374602953 -10.984539822272929 5.8139327820677575 0 0 0
1302 1 -14.145514792614204 -11.287884920322677 4.215106094404385 1 0 0
356 1 -14.31979604892462 -5.623677874544306 8.374117471715534 0 0 0
253 1 -10.133618017301668 -11.77474209410548 4.692754527391875 0 0 0
411 1 -8.10357368785802 -11.491582255258146 6.271768253252221 0 0 0
243 1 -7.867421835572832 -12.379855910810502 3.6309037115093847 0 0 0
801 1 -6.066010244034205 -12.123350555099229 5.220179352386898 0 1 0
829 1 -3.9154709093781257 -12.738484360445824 4.171137927325388 0 1 0
295 1 -3.8714185806505235 -10.426656487882648 4.914260897299473 0 0 0
303 1 -2.1724098876479445 -12.547452827118192 5.809864405326406 0 0 0
304 1 -1.7248884793794286 -11.080395574935938 3.811726567265042 0 0 0
460 1 -11.820898313356327 -9.55524398843729 3.937380068469439 0 0 0
459 1 -11.764338603834226 -7.167279511557284 4.63470196880696 0 0 0
399 1 -12.204417579270766 -8.637448392784531 6.593740390657272 0 0 0
1207 1 -13.98215334783925 -8.900539543870165 4.966853272435747 1 0 0
458 1 -9.607424441335446 -7.924026623254965 3.5418413025582165 0 0 0
447 1 -9.994901502606023 -9.399422921414502 5.56461497508675 0 0 0
401 1 -10.16059616438854 -7.014550576136947 6.247802339939797 0 0 0
235 1 -7.910699651842354 -10.066646653226904 4.294641593288231 0 0 0
294 1 -6.053506831719432 -9.832055407692142 5.9807171573405125 0 0 0
413 1 -7.852630291135811 -7.636860996432222 5.178259552778675 0 0 0
414 1 -6.002712078224846 -7.531738584276591 6.79812377072613 0 0 0
297 1 -5.65345638852277 -8.308726075444758 4.063427346525144 0 0 0
296 1 -3.81159136518837 -8.136937167989657 5.660050784690965 0 0 0
305 1 -1.6993060942033598 -8.756598350864078 4.8033895282011425 0 0 0
280 1 -1.9742568376393859 -10.19060336696072 6.516748497730175 0 0 0
466 1 -13.607723995509827 -5.072728422577605 3.744396895079513 0 0 0
465 1 -11.846821484835488 -4.833180829599046 5.384003691875995 0 0 0
391 1 -14.007172934571608 -4.244394294814429 6.465544017495672 0 0 0
1206 1 -14.001791706616855 -6.641369081019896 5.696583491109239 1 0 0
457 1 -9.623075225927035 -5.481542863723995 4.3639843306500286 0 0 0
403 1 -7.802663263335324 -5.3279164164719965 5.8810857832500485 0 0 0
443 1 -7.279107318168791 -3.8618544095902454 4.124670573209395 0 0 0
415 1 -5.636468118955667 -6.008385936530703 4.951894288637613 0 0 0
299 1 -3.338547601243242 -6.576174318018277 3.8577648452227624 0 0 0
383 1 -3.783976293971353 -5.712579486343312 6.41373987257437 0 0 0
300 1 -3.2752712883569295 -4.147563642345746 4.4345699057813075 0 0 0
416 1 -5.518380364306889 -3.5003196542993997 5.653692211808787 0 0 0
309 1 -1.2194419793645022 -4.853308550770331 3.476532520575935 0 0 0
298 1 -1.619007983582998 -6.393921870191824 5.3703613126322 0 0 0
271 1 -1.6592576518868594 -4.086492786869876 6.156978011153035 0 0 0
467 1 -13.632452452147502 -2.8434033669087437 4.444651474693503 0 0 0
860 1 -13.323536548581957 -0.4934449654950548 5.150004719806718 0 0 0
395 1 -11.795614623733051 -2.4664787563041752 6.040062326799456 0 0 0
464 1 -11.297363211102503 -3.5167699183917573 3.470156953855545 0 0 0
463 1 -11.097316762236773 -1.075674217725032 4.067017467960101 0 0 0
455 1 -9.570837684998558 -3.0651718722088006 5.019789234413194 0 0 0
396 1 -9.368869452036225 -0.8403366732095563 5.821195081734734 0 0 0
405 1 -7.216450085632773 -1.4969171205676712 4.5702443559374775 0 0 0
404 1 -7.710828124225449 -2.8939073931596937 6.583935084271049 0 0 0
441 1 -5.0909320193426595 -2.1451203764362443 3.6273566907668613 0 0 0
406 1 -5.570740418472541 -1.1518056184421326 6.302999082142323 0 0 0
418 1 -3.3440104428486848 -1.8438974003004187 5.28432344164206 0 0 0
302 1 -1.1451366791038975 -2.4310906494117877 4.299445867937846 0 0 0
873 1 -1.012282768707701 -0.11423684479568941 5.023952271560601 0 0 0
398 1 -12.616580944007845 -12.422662324813723 7.887563145262794 0 0 0
409 1 -10.405337274578818 -13.122302210577411 6.716081440517117 0 0 0
365 1 -10.739345057931924 -12.297942625826709 9.414962271892984 0 0 0
410 1 -10.394120922004198 -10.82917865500765 7.380804706697512 0 0 0
367 1 -8.631036516203134 -10.595101591634153 9.117073378772654 0 0 0
292 1 -8.492160366081022 -12.81458903148302 8.27302504321032 0 0 0
379 1 -6.535345697178819 -11.35969731365379 8.002907738122977 0 0 0
796 1 -6.466740225038089 -13.758511248368702 7.276451181545257 0 1 0
277 1 -6.797222219413347 -12.705855582322874 9.995573713542457 0 0 0
278 1 -4.278254319274723 -11.855753767419326 6.888789901082399 0 0 0
755 1 -4.652746640316849 -13.286438933636829 8.919204342259372 0 1 0
279 1 -4.651222471806488 -11.01228249622341 9.533923228625829 0 0 0
286 1 -2.3105787555233768 -11.682999544726725 8.562017418391735 0 0 0
1784 1 -0.32202693197937116 -12.277128569068207 7.4812019703862145 0 1 0
145 1 -11.087959687417714 -6.598240955111815 13.529604472030178 0 0 -1
324 1 -12.56374887421967 -10.063267288680427 8.523369287430553 0 0 0
355 1 -12.56031123146422 -7.6543465912296424 9.306912822675658 0 0 0
101 1 -6.401766562411911 -0.9792538120212715 0.022532357788794144 0 0 0
400 1 -10.345929356960696 -8.463572556932156 8.095671457724647 0 0 0
112 1 -10.715457717363602 -9.950813442148956 10.10707663063341 0 0 -1
368 1 -8.47552416249489 -8.244149344951053 9.769603733872104 0 0 0
412 1 -8.139983578252206 -9.180127413486685 7.055419397603176 0 0 0
369 1 -6.394917658078794 -8.91412325261477 8.755389951109885 0 0 0
381 1 -4.160189725007871 -9.546831143099965 7.681111455138732 0 0 0
382 1 -4.218150279900131 -7.248131578802861 8.49298464907203 0 0 0
288 1 -0.180374109845312 -9.955517001132788 8.31113918940475 0 0 0
1270 1 -0.15876591233408455 -7.541230625761765 9.046046430885179 0 0 0
267 1 -2.3297468631729608 -9.24861739809307 9.299995550759752 0 0 0
281 1 -2.0644764546757717 -7.7780639486042755 7.45917531570961 0 0 0
318 1 -2.090915353975099 -2.2212159506904623 11.540605727303417 0 0 0
392 1 -12.221163981617861 -6.28269139972199 7.411096645516208 0 0 0
393 1 -12.201806886045931 -3.8578019303933253 7.992739398097671 0 0 0
1180 1 -12.49743844159737 -5.259922099614792 10.014094652013776 1 0 0
394 1 -9.958880350165865 -4.625129686971015 6.993559355522491 0 0 0
358 1 -10.306239949824185 -6.083090681269397 8.974051098350893 0 0 0
359 1 -10.211035006488832 -3.7642338089534455 9.666835926751693 0 0 0
402 1 -8.186019904052973 -6.763246513444998 7.788379539700928 0 0 0
370 1 -6.2845184827773615 -6.499633529532513 9.588471463454903 0 0 0
360 1 -8.178773702078395 -4.361843434780431 8.565391213467722 0 0 0
371 1 -5.979771458436925 -5.172896274791205 7.488584251634128 0 0 0
336 1 -6.249670068703084 -4.049728729593497 10.389576016498223 0 0 0
384 1 -4.171695579278964 -4.9733989518457715 9.126795596361417 0 0 0
719 1 -14.153579183957302 -13.521053883344242 3.5277908488103282 0 1 0
269 1 -2.205829023408743 -6.950040049326006 10.098963771605804 0 0 0
283 1 -1.9867394676348908 -5.473754481304846 8.200445595243734 0 0 0
389 1 -13.947500162457079 -1.7024892812798704 7.280698099156842 0 0 0
354 1 -12.093446265625309 -1.6343677514596937 8.828191763707897 0 0 0
1179 1 -14.227234226207866 -0.85053212925739 9.947978751237711 1 0 0
352 1 -14.347588524476889 -3.3342171038601407 9.151858862637058 0 0 0
712 1 -11.619159446520307 -0.2159907986987939 6.844718109079315 0 0 0
362 1 -9.921194602263133 -2.332991022863899 7.681829056968139 0 0 0
879 1 -7.569276688786044 -0.45940108590551887 7.4034007943401345 0 0 0
372 1 -8.112700785505506 -1.9374848629263344 9.433204618916507 0 0 0
373 1 -5.936403692313114 -2.822364856186109 8.20861687550991 0 0 0
374 1 -5.7511993909631265 -0.3146097845552749 9.006636472542889 0 0 0
385 1 -3.7544866323550092 -3.4115532510815996 7.191230432444643 0 0 0
338 1 -4.105552925794303 -2.437509668741342 9.949281789711423 0 0 0
386 1 -3.7103290271172593 -1.0587745239341402 7.9834535057402345 0 0 0
285 1 -1.5565352517029787 -1.7374026034945391 6.92893919217021 0 0 0
349 1 -1.9560026554559844 -3.090347062769238 8.859205650330862 0 0 0
350 1 -1.7774650024395022 -0.8695642134218655 9.588829840681528 0 0 0
180 1 -13.203235530208364 -10.813276874425581 13.111349379024547 0 0 -1
366 1 -13.130300982548576 -11.697780392365274 10.482717459998666 0 0 0
363 1 -13.391296666824877 -13.174085814733584 12.540106174783537 0 0 0
1166 1 -0.007017047324969994 -0.5917371938187586 11.206012498085018 0 0 0
376 1 -11.051256387256597 -11.399363014754577 12.076716584135651 0 0 0
341 1 -9.491754466067682 -13.53022954092932 13.008723680790355 0 0 0
378 1 -8.922464046000558 -12.083617850808968 11.068229722247724 0 0 0
343 1 -7.1030717636743645 -11.763271064130485 12.603342976146072 0 0 0
522 1 -3.201357238858055 -12.13229495973043 13.23439101152451 0 1 -1
265 1 -4.943195223841883 -12.448164265951146 11.549243191622471 0 0 0
274 1 -0.45322593651349763 -11.403060816194326 10.231501708640439 0 0 0
29 1 -2.93237752597455 -10.739319401022101 11.258277585913985 0 0 -1
273 1 -2.6443838074969364 -13.04179517488309 10.574904335478811 0 0 0
262 1 -0.879920934867279 -12.858022986852859 12.225981412028558 0 0 0
263 1 -0.89935817107696 -10.598276183410013 12.914741850158618 0 0 0
331 1 -12.99197471298978 -9.302468549066823 11.216348091015755 0 0 0
193 1 -11.080965087891533 -9.006177086746938 12.73723118914601 0 0 -1
332 1 -8.913250913982804 -9.698417084485952 11.807090972405275 0 0 0
357 1 -10.766965014152818 -7.624121071559219 10.852269265970753 0 0 0
320 1 -8.82813041279324 -7.338003085189058 12.541916559385735 0 0 0