LAMMPS data file via write_data, version 2 Aug 2023, timestep = 0, units = metal

1861 atoms
3 atom types

-13.933983815418511 13.933983815418511 xlo xhi
-14.169579698977506 14.169579698977506 ylo yhi
-13.816911032272419 13.816911032272419 zlo zhi

Masses

1 55.847
2 1.008
3 1.008

Atoms # atomic

1041 1 -9.572960850804094 -11.735567171245401 -11.573681311029015 0 0 0
1055 1 -11.85768069809887 -12.018222217808109 -13.032389760211514 0 0 0
1056 1 -12.53374746690338 -9.054447585786534 -12.394667511544382 0 0 0
1169 1 -10.38314321772707 -10.084624776412195 -13.100913221327529 0 0 0
974 1 -10.614177855319262 -12.455034100045927 -9.269131689582082 0 0 0
1057 1 -11.697774137179948 -10.668466087278269 -10.770350927386634 0 0 0
1042 1 -8.979113238547445 -10.596682042357711 -9.374172840872037 0 0 0
1474 1 -11.30478875425643 -13.505488676628993 -11.348684498481289 0 1 0
981 1 -13.29873592349981 -12.593964747889789 -10.494040518062038 0 0 0
1044 1 -11.209707523651302 -9.591037647415366 -8.522470555793754 0 0 0
1043 1 -10.008965759859988 -8.98213838956746 -11.022343069430539 0 0 0
1639 1 -13.718506271111956 -13.772568236456348 -12.746769895941863 1 0 0
1040 1 -8.625476043550588 -13.42226287378577 -9.820272811550343 0 0 0
1640 1 -13.745128431886654 -9.635990935905536 -10.025652873165749 1 0 0
976 1 -12.790672579208806 -11.30375878996295 -8.462158052469203 0 0 0
1168 1 -9.854252513570003 -13.083823889862408 -13.742831386178663 0 0 0
1320 1 -12.40789268493108 14.15558048832757 -9.015626445708047 0 0 0
1149 1 -7.794655158202857 -10.019868259142397 -11.819058112161123 0 0 0
1148 1 -7.516371195939883 -12.82142158065813 -12.376033451847443 0 0 0
1126 1 -4.687419927570408 -12.725964958191906 -11.044982449318145 0 0 0
1128 1 -5.247314923868144 -9.865277409731842 -10.310036346512458 0 0 0
1270 1 -3.557828049448876 -12.000345527048118 -13.368952106539059 0 0 0
1272 1 -4.05311052865715 -9.25995440548457 -12.801900603016987 0 0 0
1290 1 -5.6819179287081525 -11.061378640809 -12.630248327363228 0 0 0
1021 1 -6.968467460866693 -11.607715176604128 -10.235136053555054 0 0 0
1108 1 -4.4039553884789004 -11.468661499823558 -8.897424853017302 0 0 0
1127 1 -6.043781263738392 -13.207527513111337 -8.556200335873962 0 0 0
15 1 -5.2378138457168735 -13.884081841012389 -13.14461103341582 0 0 1
1271 1 -3.0948555084947778 -10.853332378547345 -11.26367673143325 0 0 0
1150 1 -7.267864546079677 -8.91213053831154 -9.638448065971215 0 0 0
1252 1 -2.8548056192120814 -9.60988875154683 -8.770342422597762 0 0 0
1110 1 -4.875116530809102 -8.633496739317849 -8.189326744719665 0 0 0
1269 1 -2.5935547793912193 -13.674881300863175 -11.757834259657628 0 0 0
1249 1 -1.0436233903659708 -11.810025099696167 -11.921610785266164 0 0 0
1418 1 0.5631566372479941 -10.064261241883752 -12.264268365278925 0 0 0
1229 1 1.4832570726840881 -11.686143082647034 -10.644395254873295 0 0 0
1395 1 0.9947494926380926 -12.897057307002784 -12.82939898646312 0 0 0
1231 1 -0.5297657736335903 -10.608673494338227 -9.943389521540423 0 0 0
1250 1 -2.292769261431232 -12.391357457588416 -9.633258131617252 0 0 0
1248 1 -0.19165836686018523 -13.461396497605211 -10.38623419802694 0 0 0
1233 1 -1.477137434014379 -8.933834916277394 -11.353765775039456 0 0 0
1228 1 2.4249123322095834 -13.195714026339358 -9.036544228856839 0 0 0
1399 1 0.934744449786125 -8.776004869318879 -10.077799247882137 0 0 0
1398 1 1.9026866677203191 -10.441958408163565 -8.473561594919838 0 0 0
1251 1 -1.9500977560028758 -10.239659159619823 -13.597991226124044 0 0 0
162 1 2.6923602646743774 -11.000142162210151 -13.17475032332583 0 0 1
1230 1 0.28636475645949666 -12.256567503491313 -8.214393861533441 0 0 0
1397 1 3.1443679157250877 -9.719864914734744 -10.958112941409142 0 0 0
1374 1 3.624527089523678 -12.643969762297038 -11.479524223252131 0 0 0
1396 1 4.070260992780803 -11.514790045084926 -9.280531081456736 0 0 0
1376 1 5.748563511784564 -9.756634000466587 -9.451538660452421 0 0 0
1542 1 7.466663032438298 -11.867954982564807 -12.590487946634774 0 0 0
1544 1 5.299633191781911 -10.939183158913632 -11.677937541213371 0 0 0
1699 1 4.4269973346602995 -9.300618502786651 -13.305819487044815 0 0 0
1859 1 6.157934199616047 -12.523702832371598 -9.969101483446664 0 1 0
145 1 6.8927319245813266 -9.074888364992269 -11.913049626170235 0 0 1
178 1 5.807108137688932 -13.687634328777257 -12.181192521630635 0 0 1
1543 1 7.8412523875881845 -10.808501193952814 -10.375597942205415 0 0 0
1844 1 3.222545665998812 -13.91129605079852 -13.52803619033562 0 1 0
1378 1 3.569139917477127 -8.663234321055285 -8.675320509414895 0 0 0
1839 1 7.031323001448872 -14.061410980304267 -8.283174932994 0 1 0
1858 1 8.351217457040956 -13.64379296634017 -10.807811284999266 0 1 0
1524 1 8.355126835987527 -9.540480578812087 -8.056006547004213 0 0 0
1638 1 13.7808403154386 -10.991126414492642 -12.322750738363094 0 0 0
1681 1 8.93946411829107 -10.081492029662328 -12.769113716113704 0 0 0
1641 1 11.484691981603195 -9.944330013555266 -11.350294594268783 0 0 0
1659 1 12.077336546956182 -12.830894903206392 -11.885297220952745 0 0 0
1501 1 10.008133903864646 -11.684194295136002 -11.025795178966597 0 0 0
1485 1 12.432520496145681 -11.508126680004466 -9.819889516892468 0 0 0
1855 1 10.83715590566721 -13.32083097647871 -9.531400691841352 0 1 0
1522 1 10.427355398892427 -10.439981250970476 -8.94465843844766 0 0 0
329 1 9.617714145902703 -12.75075222594142 -13.275750442781582 0 0 1
1355 1 8.704248584176003 -12.351167371066209 -8.715490844771033 0 0 0
1523 1 9.410426146553643 -8.875552180766554 -10.615678273993051 0 0 0
1521 1 11.27742886030331 -11.142470507706166 -13.55834272842658 0 0 0
1503 1 11.991901203715258 -8.742791775312943 -9.244928821244326 0 0 0
1660 1 12.825533120652747 -9.312001485580936 -13.744491533027286 0 0 0
1170 1 -8.60620568142312 -8.377310069945253 -13.444785167670052 0 0 0
1058 1 -10.901110467142539 -7.348055289813571 -12.598611574694754 0 0 0
1059 1 -12.081302925337102 -7.885303775576296 -10.167598785425175 0 0 0
1060 1 -12.448413707858215 -5.157288232067879 -9.516440294584871 0 0 0
1171 1 -10.404813910202254 -6.108939549186921 -10.407008138300435 0 0 0
1308 1 -9.091015999955296 -5.463819446557869 -12.824807126728404 0 0 0
1152 1 -9.402957778238118 -7.834968247242318 -8.84038002086076 0 0 0
1173 1 -11.236864904697276 -4.523572318702 -11.970827942055363 0 0 0
1748 1 -12.953747567278556 -6.3003878773751225 -11.796324809413118 1 0 0
1749 1 -13.337594320707396 -3.576645282636063 -11.064192794033678 1 0 0
1153 1 -8.72356493569145 -4.492337611222162 -10.596969860026066 0 0 0
1155 1 -10.730016941430137 -3.2374412353886157 -9.744465430167889 0 0 0
288 1 -13.750271791738735 -4.826666188299143 -13.358890991387401 1 0 1
1134 1 -8.37867518799276 -3.2220699341907437 -8.457112031850995 0 0 0
1151 1 -8.312270985535385 -7.241701457407145 -11.176147123414696 0 0 0
1291 1 -5.977222953175717 -8.229388393786214 -11.996419749351231 0 0 0
1273 1 -3.581593539009308 -8.057748318427208 -10.601188839796471 0 0 0
1293 1 -6.517338537599387 -5.421193272773262 -11.460808871804026 0 0 0
1294 1 -7.383266260800059 -3.729824301664843 -12.963154482599018 0 0 0
1274 1 -4.426372142880181 -6.403912824462816 -12.152094221215474 0 0 0
1276 1 -4.8971807813700945 -3.457806861699801 -11.62976749997204 0 0 0
1132 1 -7.700227037233358 -5.976446040055599 -9.02369534117776 0 0 0
1130 1 -5.629093082269112 -7.064115687631841 -9.792382696694737 0 0 0
1275 1 -4.029421028883695 -5.049137064657009 -9.972315577655332 0 0 0
1277 1 -6.182387339668698 -4.2259798054332 -9.197011375155133 0 0 0
1254 1 -3.2397861794036302 -6.923104869501293 -8.448762514265859 0 0 0
1292 1 -6.936958620790766 -6.483124372193451 -13.547182168375908 0 0 0
1439 1 -2.9231368194668903 -4.577868785449271 -12.550264287715798 0 0 0
1581 1 2.236703223252153 -8.329883174852942 -12.506383663526002 0 0 0
1438 1 -2.3733434713521167 -7.381281594095102 -13.110021989300023 0 0 0
1253 1 -2.113905770603509 -6.18146687085624 -10.949335904351683 0 0 0
1401 1 0.14616021720706307 -7.232937758575935 -11.713158927959462 0 0 0
1583 1 -0.330164959651869 -4.31919523085466 -11.252408481299446 0 0 0
1568 1 1.821288412249645 -5.500299451663642 -11.928775028081253 0 0 0
1422 1 -1.6188020135192644 -5.003218179605025 -8.786450333888713 0 0 0
1382 1 2.2281394505340657 -4.296755474520545 -9.807418249095168 0 0 0
1402 1 0.4422398015446696 -5.9508361469953 -9.591893539756354 0 0 0
1234 1 -1.227649466079189 -7.867588760037189 -9.280310297702169 0 0 0
1421 1 -0.7460961076538837 -5.575715748112495 -13.391366079488304 0 0 0
1423 1 -2.4334675588072496 -3.2587259890640485 -10.32046080983889 0 0 0
1714 1 1.064749310605194 -3.817117740969559 -13.63126017280507 0 0 0
1403 1 0.0451645596391419 -3.264652801943873 -8.984901029011894 0 0 0
1566 1 2.7230454099587185 -6.9361852155161134 -10.17244404635412 0 0 0
1564 1 4.83910590257123 -8.007100151009492 -11.082712119213461 0 0 0
1545 1 7.336852739620134 -8.005652194000053 -9.815426839501342 0 0 0
1567 1 3.459835579674845 -3.6408825327024203 -12.134685346081802 0 0 0
1546 1 6.4932999149342585 -6.317871968143565 -11.379555555070722 0 0 0
1548 1 4.441793821773217 -5.2593608611544465 -10.592759159715056 0 0 0
1565 1 3.8485896427221746 -6.499422225934349 -12.819571691580059 0 0 0
1700 1 5.533097428544707 -4.697421236574453 -12.920238688324238 0 0 0
1527 1 6.936201538317867 -5.01717468250137 -9.210770753679675 0 0 0
1547 1 5.318154422496406 -6.898685704855497 -8.803993579185565 0 0 0
1683 1 6.055537719651014 -7.53483127642165 -13.435649397952577 0 0 0
1701 1 5.924446108949393 -3.362622182004664 -10.774114443446553 0 0 0
1684 1 8.131240455135163 -4.468950946814784 -11.439907434939379 0 0 0
1549 1 4.83031336546269 -4.015024445205997 -8.534246839704267 0 0 0
1666 1 8.574662645087319 -3.144933374983081 -9.373508552611725 0 0 0
1623 1 13.614888094352967 -6.886369042556931 -9.474518989324746 0 0 0
1682 1 8.686858782222114 -7.248584606928071 -12.086965370217616 0 0 0
1661 1 10.74202500849529 -8.329683756080467 -12.945683493555668 0 0 0
1747 1 13.179459691733712 -8.07538141166435 -11.612699402572229 0 0 0
1525 1 8.875287813020481 -6.148644668605844 -9.78041939482604 0 0 0
1765 1 12.263322227604704 -6.389202291023513 -13.15182329254908 0 0 0
1662 1 10.212344296546927 -5.393974397129057 -12.309989451175099 0 0 0
1663 1 11.148980541439084 -7.059680031665622 -10.675093584278123 0 0 0
1664 1 10.685799631860196 -4.203172736618354 -10.221405861835006 0 0 0
1766 1 12.858710452825104 -5.2850031806105875 -11.020601703799885 0 0 0
1767 1 11.941503368725677 -3.7083378031004663 -12.492883139376385 0 0 0
1750 1 13.378473514934274 -4.151301994607156 -8.735662579174189 0 0 0
1643 1 11.536245196899259 -5.800908275481463 -8.561384320294216 0 0 0
1505 1 9.938274509678177 -7.767343610760291 -8.278841842835504 0 0 0
1172 1 -12.202370498859318 -3.0495374744449197 -13.529965799711505 0 0 0
1309 1 -9.650624558799299 -2.7381816566864146 -12.22692163971723 0 0 0
1174 1 -11.742988177446776 -1.7152425437267915 -11.389522004687189 0 0 0
1176 1 -12.177762804631184 1.1909700325993882 -10.847655734236925 0 0 0
1311 1 -10.031275139864626 -0.0021055090988415515 -11.752282672205265 0 0 0
1322 1 -12.613583292373084 -0.09806658523008238 -13.078907633837842 0 0 0
1175 1 -12.831822253853973 -2.2992637011840955 -9.088250511566036 0 0 0
1157 1 -11.105402107673825 -0.5163644962071068 -9.293393261206823 0 0 0
1297 1 -9.076379971543798 -1.5059529395883846 -10.005079405337957 0 0 0
1299 1 -9.515242496060736 1.4192146890671005 -9.508958284654204 0 0 0
1312 1 -10.87382460148006 1.63184068887867 -13.31099208954784 0 0 0
1159 1 -11.821947117585022 2.372256366146031 -8.649192525148198 0 0 0
1177 1 -13.392952029633504 0.3836981358685403 -8.40621808762081 0 0 0
1751 1 -13.800937707534935 -0.8136233782061737 -10.74783188970043 1 0 0
1298 1 -8.271954039194949 1.8052081445182733 -12.030120347023544 0 0 0
1295 1 -7.055927530395633 -2.505435805322902 -10.85732771473672 0 0 0
1296 1 -8.003679049122168 -0.9550283459388087 -12.490744424342477 0 0 0
1440 1 -3.2395489777416273 -1.692254033261106 -12.005435895557955 0 0 0
1278 1 -5.282930128286461 -0.6643299979808432 -11.01416794127644 0 0 0
1441 1 -4.52150780437025 -2.3133153956994086 -9.3801983939445 0 0 0
1454 1 -5.7595938875364805 -1.8961134824242567 -13.228563732421003 0 0 0
1442 1 -3.736456436315752 1.1031398715576515 -11.419281653630621 0 0 0
1456 1 -6.2430476266114034 0.8702821714141198 -12.763689917264035 0 0 0
1280 1 -7.452382565438275 0.27146667548757364 -10.213261420396003 0 0 0
1443 1 -5.002887399755583 0.5562448723709412 -8.905419543865012 0 0 0
1279 1 -6.6378293998249385 -1.3648670466764994 -8.630675424529155 0 0 0
1444 1 -5.827636970312746 2.094306800824759 -10.62995781269074 0 0 0
1455 1 -4.093439976636034 -0.17105490090471065 -13.541749004435411 0 0 0
1427 1 -3.3272060338764806 2.2889194444285526 -9.121702502579499 0 0 0
1425 1 -2.8048855624275912 -0.48398767473354454 -9.705878227943408 0 0 0
1596 1 -1.112373135589575 -2.700216486325562 -12.773753142855714 0 0 0
1569 1 1.2732355578130754 -2.578892031904436 -11.386279412708323 0 0 0
1585 1 -0.7999483223347053 -1.4674487269184056 -10.498902640986262 0 0 0
1597 1 -1.592648162181849 0.1538781530750395 -12.129476783058736 0 0 0
1584 1 0.41191543391236785 -0.9213415049649267 -12.961455507809257 0 0 0
1586 1 0.12502141353280294 1.8020048483691085 -12.404209741301083 0 0 0
1587 1 -1.1953131042341152 1.3591736003524595 -9.841712475431235 0 0 0
1571 1 0.8543940443124445 0.13697798714037113 -10.714901890799215 0 0 0
1715 1 2.211967479178927 0.7977446384073232 -13.281055201680935 0 0 0
1570 1 1.736279134989264 -1.4734956845694853 -9.108331432193996 0 0 0
1572 1 1.3130972341046867 1.4866205084229165 -8.39990491565673 0 0 0
1716 1 2.5167002524571735 2.045307324301044 -10.90695815965288 0 0 0
1405 1 -0.38135552803934836 -0.3170268797770053 -8.270772697910868 0 0 0
121 1 2.576810862236247 -1.9542110992851818 -13.651486443371343 0 0 1
1782 1 7.184153974683625 -2.8693696051120643 -13.106590394402502 0 0 0
1702 1 2.9090763263355974 -0.7706271921676322 -11.564551176819794 0 0 0
1703 1 3.319283460268906 0.41598162153437634 -9.342925320984296 0 0 0
1685 1 5.1068767428006225 -1.7848521152537238 -12.33826693877132 0 0 0
1687 1 5.514484499851402 -0.6576309290925035 -10.131396326173743 0 0 0
1795 1 4.634451405447507 1.0905602102380865 -11.801665774250251 0 0 0
1783 1 7.67856314905362 -1.570178099855454 -11.056563428200437 0 0 0
1784 1 6.816822453058585 -0.1466898451531211 -12.655637898486278 0 0 0
1785 1 7.220668494427098 1.045146349597223 -10.535456257626462 0 0 0
1550 1 3.8244248944170103 -2.4192010652458595 -10.01600864533636 0 0 0
1686 1 6.453469522220711 -2.273193294562496 -8.582940662196814 0 0 0
1689 1 5.095919636176056 2.1972684107544307 -9.652286099330592 0 0 0
1668 1 8.177397237197848 -0.5744168039268196 -8.887976714226522 0 0 0
1704 1 3.7398935957784296 2.6406897681884036 -13.42857709147899 0 0 0
1670 1 7.683061942796797 2.2426169963474063 -8.364858991726114 0 0 0
1833 1 8.641494400673665 1.749248061320852 -12.79278520974657 0 0 0
1822 1 13.571034917135027 -1.9795409542244489 -12.870185929924451 0 0 0
1813 1 13.553938278934773 2.10653488148324 -10.087491123007718 0 0 0
1768 1 12.342572930980126 -2.5313197142016453 -10.284490482772185 0 0 0
1769 1 9.822836474883768 -2.6748266638414115 -11.88538278570001 0 0 0
1770 1 10.335466593546258 -1.5516057374583294 -9.55081706151893 0 0 0
1823 1 11.426905468628917 -0.9504036044397459 -12.133065935128451 0 0 0
1753 1 11.96336068484785 0.34057031866673526 -9.964732566326827 0 0 0
1771 1 9.327450474241811 0.11113549618426433 -11.069210082906455 0 0 0
1812 1 13.151768700056003 0.8556459398796186 -12.440559357882343 0 0 0
1772 1 9.850075151025504 1.4051735951644062 -8.968661127908007 0 0 0
252 1 8.85283770466286 -1.0159842467187659 -13.418357822665522 0 0 1
1824 1 10.972964101572313 1.932401222498802 -11.515520698499548 0 0 0
1752 1 12.788014717895194 -1.332657170280081 -8.377666359351963 0 0 0
438 1 10.573118121597975 0.592155931439688 -13.725591471247773 0 0 1
1323 1 -13.075049975935302 2.6221697034105222 -12.520652783567918 0 0 0
1313 1 -10.555173271466561 2.8944273428974068 -11.14021980146324 0 0 0
1468 1 -9.77103587943524 6.322900593479057 -12.907278213976582 0 0 0
1469 1 -10.949015609924576 5.693576301363814 -10.596475072214169 0 0 0
1316 1 -12.960385745122398 6.647268236360739 -9.821193706344411 0 0 0
1470 1 -11.968056791456277 7.262950426228505 -12.197326566570514 0 0 0
1461 1 -9.381808957224115 7.5001167513392115 -10.704348400428977 0 0 0
1178 1 -12.723476870592332 4.043502357573422 -10.315318997467028 0 0 0
1300 1 -8.907655418285046 4.706828937808654 -11.476237258182628 0 0 0
1315 1 -10.181656919395873 4.086890628729671 -8.964441201135092 0 0 0
1314 1 -11.33607330001061 4.425506344955052 -12.806355041284778 0 0 0
1850 1 -13.44647882432734 5.441926532611513 -11.966314656349708 1 0 0
1467 1 -9.230894806969449 3.3736810098336054 -13.587377573492976 0 0 0
1302 1 -10.61873260961313 6.982554972499022 -8.44297670400167 0 0 0
1460 1 -8.409118632650117 5.896699633638336 -9.167119334818022 0 0 0
1607 1 -4.507075433305044 2.693280707543737 -12.978583062008578 0 0 0
1458 1 -7.934925495374284 3.175217734976526 -9.75207974517296 0 0 0
1457 1 -6.696287385998178 3.642662577332514 -12.086655598946814 0 0 0
1459 1 -7.089285212409591 6.524706158071789 -11.768993932060692 0 0 0
1446 1 -6.179279002320776 4.898697599945335 -10.059899978454702 0 0 0
1601 1 -3.3821371500097666 7.2545039881827 -12.789225433720675 0 0 0
1608 1 -5.05278767388565 5.5659961705772485 -12.568237989515714 0 0 0
1602 1 -4.668934384812452 6.839313787069772 -10.19729816015029 0 0 0
1600 1 -4.167000277744425 3.9027586888764088 -10.813595218508624 0 0 0
1448 1 -6.810974591560981 7.773750968102908 -9.478983374572802 0 0 0
1429 1 -3.819385578095284 5.242384184964818 -8.618445456748502 0 0 0
1599 1 -2.8978582540793116 4.502568551880932 -13.24481720678892 0 0 0
1445 1 -5.524746126852033 3.256484291960186 -8.353798949615403 0 0 0
1614 1 -8.057800685617746 8.16264059519762 -13.196925558121565 0 0 0
1609 1 -5.460633626248274 8.365330615478529 -11.924340156528983 0 0 0
1590 1 -2.5203338039364596 5.836166731772424 -11.138188088785853 0 0 0
1598 1 -2.0534494552158478 2.829202966373737 -11.579672165443418 0 0 0
1573 1 0.43592672174374414 3.0568470146766327 -10.121964796851417 0 0 0
1591 1 -2.0804316875324034 6.892341339488743 -8.939880403140478 0 0 0
1727 1 -0.8193552369535588 7.5157067057377045 -11.353461743032721 0 0 0
1588 1 -0.38779717057511753 4.598521628288433 -11.773815928386028 0 0 0
1717 1 1.736270958471085 3.595660038731202 -12.769477190567082 0 0 0
1718 1 0.0943986519483655 5.943541294827378 -9.77361822933026 0 0 0
1706 1 2.149443121471876 4.7737750119769995 -10.539226344427451 0 0 0
1804 1 1.2652351027239632 6.412638048011621 -12.133426778902338 0 0 0
1589 1 -1.6453607954629188 4.067068799088537 -9.464274108929445 0 0 0
1726 1 -1.1712130055933319 6.2527642875185006 -13.432952237292573 0 0 0
1708 1 1.7144790774265353 7.81967450541144 -9.938645927095674 0 0 0
1719 1 0.41354490793663956 8.1329537850665 -13.694338874050358 0 0 0
1707 1 2.4574817469584254 6.064921117472162 -8.381494676815251 0 0 0
1705 1 2.97597610683934 3.220052877227067 -8.807639558829857 0 0 0
1786 1 6.371958255101678 2.71318921926944 -12.155880299344844 0 0 0
1787 1 6.8129675023504745 3.8995430261034993 -9.751886119059833 0 0 0
1788 1 5.942135764005471 5.656530832631541 -11.440097891135196 0 0 0
1796 1 4.286736616222914 3.781548522549487 -11.218932233045999 0 0 0
1798 1 3.2578304234804065 5.392770240626136 -12.870660968010597 0 0 0
1835 1 7.442149722493593 7.461110606106379 -11.765072513408622 0 0 0
1691 1 4.632992217694326 4.916314533015084 -9.081847522650552 0 0 0
1789 1 6.307582417906719 6.791024547932819 -9.248484665048107 0 0 0
1693 1 3.807522306210636 6.56297626044851 -10.727657037775947 0 0 0
1790 1 5.028401565108226 7.07535341103833 -13.212594710660182 0 0 0
1834 1 8.0622193343149 4.683263371381008 -12.134491745708976 0 0 0
1694 1 4.299850823179913 7.797993577504199 -8.540177852630798 0 0 0
223 1 5.5284056486665705 4.431928079693888 -13.599274087157 0 0 1
1799 1 2.9504124584907103 8.22995893379809 -12.347191625893679 0 0 0
1775 1 8.423272804419113 5.8160839501995 -10.035150548675364 0 0 0
1773 1 8.857718325761766 2.9125151878894986 -10.563524462846678 0 0 0
1755 1 11.52842890966306 3.148406277749592 -9.352888305450326 0 0 0
1816 1 12.129653051286976 6.5034823591449875 -11.024987454422929 0 0 0
1825 1 10.222354062560857 3.6123369421272056 -13.079305752311281 0 0 0
1826 1 10.478482558044316 4.736305303863839 -10.874653571462582 0 0 0
1827 1 9.70928876770466 6.450774482705915 -12.585007655768832 0 0 0
1814 1 12.585260409704588 3.809745906169761 -11.610160683223166 0 0 0
1757 1 11.03147549000035 5.899975021004243 -8.742172267337319 0 0 0
1815 1 13.172908098658809 5.017863787404417 -9.491098188031266 0 0 0
397 1 11.823480337136338 5.465116263520374 -13.41371587322006 0 0 1
1828 1 10.088350784022051 7.573083941980956 -10.41243554629434 0 0 0
1817 1 12.650823008564458 7.858807326893325 -9.040455409917335 0 0 0
1774 1 9.327595274887944 4.09459767326984 -8.457872511808675 0 0 0
585 1 13.407909584638247 7.123723645246995 -13.689649837175345 0 0 1
1851 1 11.48085356329614 8.145645853101096 -12.78033227944082 0 0 0
1471 1 -11.590184243643535 8.533722024656667 -10.112092612809393 0 0 0
1463 1 -9.77645617939464 10.349118129630812 -10.292354375564141 0 0 0
1472 1 -12.39482185163836 10.127620496719738 -11.660000184278118 0 0 0
1616 1 -10.776686555567156 11.8705249062987 -11.974752839581576 0 0 0
1735 1 -10.186555490646994 8.984821737359391 -12.489384345375825 0 0 0
1473 1 -12.002775731806377 11.328361587523466 -9.38442172217356 0 0 0
22 1 -13.348522830736526 11.846557841827773 -13.32838781904037 0 0 1
1478 1 -12.852277924597773 12.867694943610212 -11.152928249798737 0 0 0
1465 1 -10.199678228755934 13.14392464100249 -9.664914383055532 0 0 0
1318 1 -13.551357242329717 9.541390716638466 -9.075271758400266 0 0 0
1450 1 -8.96388836900811 8.673178363237811 -8.644079474654633 0 0 0
1617 1 -11.593618810437274 13.564211732045377 -13.513948309558273 0 0 0
1615 1 -8.623024126427918 10.891734788056068 -12.796392852975604 0 0 0
1039 1 -9.294882141273717 13.663539123330063 -12.08936732301473 0 -1 0
1476 1 13.849819811527045 8.245984692513188 -11.39972514339785 -1 0 0
1464 1 -9.440517787007416 11.57732704734108 -7.961804608452353 0 0 0
1592 1 -2.953482045643396 8.587866289304449 -10.573172556558161 0 0 0
1613 1 -8.21057138750147 12.152231940944455 -10.376147609885363 0 0 0
1612 1 -7.061773862028328 12.62973475455493 -12.768050134105202 0 0 0
1603 1 -3.97745703931551 10.176164563801146 -12.162564100420962 0 0 0
1605 1 -5.967107093940133 11.063455267314586 -11.26681413553181 0 0 0
1611 1 -7.7005039353030655 9.317620580704135 -11.110650397650751 0 0 0
1729 1 -3.431393812110487 11.317887574510467 -9.891964906959503 0 0 0
1734 1 -4.316930837226499 12.762277096518206 -11.595969249681534 0 0 0
1604 1 -5.173208039153543 9.474864589678448 -9.63674884781589 0 0 0
1731 1 -5.538614225450891 12.288193557089441 -9.192075776527908 0 0 0
1606 1 -7.224867174521621 10.4533138004424 -8.90805996211914 0 0 0
1610 1 -6.335804189965813 9.882088016304435 -13.595724157722788 0 0 0
1020 1 -7.5994378916906085 13.335000405918889 -8.261862216652371 0 -1 0
1733 1 -4.870791987109076 11.731022614231106 -13.633947802912319 0 0 0
1720 1 -0.3911447342248593 8.62196860230988 -9.13035108043325 0 0 0
1809 1 -2.1308697144775515 11.887794735073628 -12.261064151174509 0 0 0
1728 1 -1.694056350506516 9.11233035890619 -12.910790652310817 0 0 0
1721 1 -1.345958974289882 10.341591458111692 -10.745946433175634 0 0 0
1723 1 -1.7309275241013484 13.135220725802109 -10.16490570239314 0 0 0
1710 1 1.1551337813567475 10.644578643745538 -9.343122513762527 0 0 0
1805 1 0.9136056595528199 9.32043569114582 -11.515325139134736 0 0 0
1807 1 0.37984612574952337 12.235990864979604 -10.980333884343098 0 0 0
189 1 -0.06110037737100171 10.863754572783007 -13.212424971091286 0 0 1
1806 1 1.470247274265608 12.69312387976993 -13.274153665874815 0 0 0
1801 1 2.4286556469911673 11.044482423374403 -11.866407523929682 0 0 0
1722 1 -1.0325677982975758 11.561817435229448 -8.498904112957684 0 0 0
1712 1 0.8496284033648553 13.249025121856539 -8.71173226457182 0 0 0
1808 1 -0.6515112369098137 13.6183953790245 -12.616818412832565 0 0 0
1593 1 -2.60807742877269 9.82477524726878 -8.445285707265441 0 0 0
1417 1 2.0028410095788995 13.974496766371749 -11.167343499419369 0 -1 0
1802 1 2.942710835225153 12.233482088302198 -9.683287852230752 0 0 0
1791 1 5.304655671676667 8.385708611809823 -11.105704297966328 0 0 0
1800 1 3.3512847729296134 9.591199011909682 -10.109731739499779 0 0 0
1792 1 5.104438913203403 11.222940603391406 -10.384659757749773 0 0 0
1841 1 4.494848170475088 10.125097517082851 -12.525520121262705 0 0 0
1842 1 6.195046805194487 11.966408638113647 -12.783062546987484 0 0 0
1843 1 4.230840812449582 12.84385723109409 -11.916258723688923 0 0 0
1838 1 6.610987511079067 12.999003094176844 -10.640635485851053 0 0 0
1837 1 7.052533352938493 10.234159995467246 -11.342838697513429 0 0 0
1829 1 6.680810736240687 8.934320937642303 -13.491911655728835 0 0 0
1779 1 7.5202271501726266 11.383442301262457 -8.924971221917733 0 0 0
1778 1 5.84675448955818 9.522364187551682 -8.799668653106849 0 0 0
1777 1 7.863700095980498 8.651597291145988 -9.555563797876967 0 0 0
1680 1 8.07841608065824 13.592025186091709 -13.229274111046946 0 -1 0
362 1 8.425079823730947 10.883889586344237 -13.49852740712817 0 0 1
1793 1 5.394113531494881 12.360510651955606 -8.311507801202657 0 0 0
1846 1 13.763601620963936 12.34956091204487 -8.658371458908015 0 0 0
1857 1 8.804964913297987 12.038000123260405 -11.493566053088552 0 0 0
1852 1 13.048460560213886 9.843526217469018 -13.010554268821096 0 0 0
1853 1 11.228312117545869 12.231986666043989 -10.059671910323377 0 0 0
1856 1 9.146655047538786 9.164507914965837 -11.98105199692166 0 0 0
1845 1 10.932777660748876 10.9209060648412 -12.143595837996143 0 0 0
1861 1 12.525708258002545 12.791577829851137 -12.398500352744245 0 0 0
1818 1 11.66822263332476 9.373295957361462 -10.618227066842048 0 0 0
1830 1 9.570369316516647 10.429553767614061 -9.759000488331719 0 0 0
1477 1 13.45735944943209 11.025708127819629 -10.774836462752663 -1 0 0
1831 1 9.12805379257853 13.154689693903562 -9.291307763784664 0 0 0
1819 1 12.097792843324118 10.635043897560381 -8.457320352270234 0 0 0
1854 1 10.456910069712137 13.827443375280746 -11.724178405822883 0 0 0
1019 1 -6.437399898165693 13.959475278894386 -10.777292910671335 0 -1 0
1106 1 -3.8274552638011894 14.106357252143086 -9.393218074425254 0 -1 0
1803 1 4.569056739402182 13.966985044104797 -9.696187971347964 0 0 0
1847 1 12.944469604511887 13.96336972211398 -10.169678645320834 0 0 0
963 1 -10.23434348643081 -11.321174043344024 -6.996682389331605 0 0 0
975 1 -12.082835627469892 -12.928855717080525 -6.803190325899148 0 0 0
977 1 -12.348750736848114 -10.143783114830907 -6.12136927948888 0 0 0
939 1 -11.504365331357398 -11.777786598914147 -4.532287005076915 0 0 0
962 1 -9.472615160646708 -12.665058494223201 -5.395047817436156 0 0 0
964 1 -9.880752491126291 -9.824404424765554 -4.758664313971991 0 0 0
1167 1 -13.291695443203801 -13.540236004079185 -4.301286649866169 0 1 0
953 1 -9.10828136079088 -11.355902491015526 -2.994305032524597 0 0 0
941 1 -12.074969850655584 -9.08514441661815 -3.9531313486967594 0 0 0
1023 1 -8.585422218233386 -9.392646493665506 -7.172589014560992 0 0 0
938 1 -10.772720776777426 -13.372338913489573 -2.9121968140184755 0 0 0
1488 1 -13.65724119838447 -10.79737559275184 -3.8091503487457636 1 0 0
961 1 -9.977466121264907 -13.97780473640097 -7.44446299998224 0 0 0
1022 1 -8.262534022022848 -12.24921709924883 -7.715467173035172 0 0 0
1129 1 -6.5411171875755265 -10.473162929039795 -7.9533975388520695 0 0 0
1004 1 -4.875213014700551 -13.450590331193998 -4.783840899091327 0 0 0
1005 1 -5.747699933773019 -11.871511005109879 -6.208714677177798 0 0 0
1006 1 -5.195618260687008 -10.61220044482349 -4.0828902869162835 0 0 0
1107 1 -3.559175331555826 -12.955755132653085 -7.178980524159602 0 0 0
1109 1 -4.0405931855054416 -10.15114738919963 -6.488602327359802 0 0 0
1007 1 -6.1719555879630805 -9.11185080720966 -5.719057336771634 0 0 0
954 1 -7.86572843616613 -10.954203071433252 -5.650395469455896 0 0 0
1008 1 -7.349987133424488 -9.572898038997952 -3.451985661092019 0 0 0
947 1 -6.905933722637772 -12.298923277338082 -3.8752444688130385 0 0 0
995 1 -3.4520332241245857 -8.798107570004134 -4.395506509047108 0 0 0
952 1 -7.384405160488239 -13.70315115482176 -6.046896357718708 0 0 0
993 1 -3.2194122572912374 -11.810390188943707 -4.984362148288069 0 0 0
988 1 -2.6327386839998095 -10.557825541484434 -2.794875351778641 0 0 0
994 1 -4.282667256964926 -12.441561564252343 -2.5549543956275986 0 0 0
992 1 -2.2208322701198657 -13.511689018647322 -3.46895415273317 0 0 0
1092 1 -1.771662037221203 -11.288922109097168 -7.628522124555106 0 0 0
1093 1 -1.5140573221132048 -10.025492746521973 -5.192197646782956 0 0 0
1080 1 0.6064833236151763 -11.145925944014762 -6.010061743454248 0 0 0
1214 1 0.8864971855473449 -9.821194254344995 -3.9238529064423115 0 0 0
986 1 -1.0023702562156647 -12.842132101173952 -5.915657573106002 0 0 0
1079 1 1.5613415788578457 -12.614816937488387 -4.4015181313728675 0 0 0
1081 1 -0.6595901008293517 -11.600140704548298 -3.6503755443402266 0 0 0
1232 1 -0.16196488641894113 -9.425182049353054 -7.692519420382119 0 0 0
1213 1 2.2741481427777366 -9.280141563029149 -6.430103727003133 0 0 0
1078 1 1.1301923337396662 -13.758116739347955 -6.499081678316927 0 0 0
1083 1 -1.0015134853721595 -8.792847684505334 -3.0326902801152684 0 0 0
1090 1 -1.270090691935792 14.16635293982615 -8.033162238065689 0 -1 0
1211 1 2.7227451309177404 -12.039927556070637 -6.918784072462188 0 0 0
1357 1 6.68697104068216 -11.303299860237214 -7.709738602235087 0 0 0
1375 1 4.878418728790216 -13.029284312283538 -7.56346800085429 0 0 0