LAMMPS data file via write_data, version 2 Aug 2023, timestep = 0, units = metal

1779 atoms
3 atom types

-14.7348169956243 14.7348169956243 xlo xhi
-13.943326672429691 13.943326672429691 ylo yhi
-12.721002812711665 12.721002812711665 zlo zhi

Masses

1 55.847
2 1.008
3 1.008

Atoms # atomic

1181 1 -13.004930998947685 -13.115864464708586 -10.384684583868594 0 0 0
1186 1 -12.712594432755404 -10.650279579181579 -9.828594561960458 0 0 0
1187 1 -10.499260129599381 -11.920362874916297 -9.993916649722076 0 0 0
1184 1 -13.946030035095667 -11.784626552679585 -8.114779491293637 0 0 0
837 1 -11.195656033270248 -9.524829190787482 -11.492261025386847 0 0 1
1194 1 -11.820024890658448 -13.229399561200497 -8.244853489339695 0 0 0
1188 1 -10.016728458742621 -9.713848608466359 -9.289866637108377 0 0 0
891 1 -13.947641892679421 -10.714648222034771 -11.954967945377792 0 0 1
1195 1 -11.470268079146447 -10.918038028367938 -7.714466010482075 0 0 0
1297 1 -13.509101043562852 -9.46039048288191 -7.355200326020775 0 0 0
897 1 -11.685562004746684 -11.854924809055827 -12.090990876124643 0 0 1
851 1 -9.47077430448687 -13.27790423072027 -12.424510157609305 0 0 1
1091 1 -9.308095767506773 -12.034611476566274 -7.652216599608217 0 0 0
1299 1 -12.159278026008383 -8.443163768813399 -9.01631377050092 0 0 0
184 1 -14.313777957632151 -13.040749439705955 -12.594734852826061 1 0 1
1290 1 14.715099308655681 -9.293383843021463 -9.526639709577204 -1 0 0
850 1 -9.153563307344845 -10.909224349943244 -11.670793249717425 0 0 1
1087 1 -8.41623080593246 -13.24851309398102 -10.117527402138329 0 0 0
1089 1 -7.058522666648367 -12.200076230830726 -11.761017775022777 0 0 0
1094 1 -5.671214971497044 -12.156404560260738 -9.482959361844097 0 0 0
1095 1 -5.234968325237993 -9.931586514842193 -8.962294931854348 0 0 0
1096 1 -4.424538661570171 -11.14244146425841 -11.362551985021323 0 0 0
1198 1 -6.608652385433627 -9.88011122289723 -11.1141416524644 0 0 0
1196 1 -7.893735465175204 -10.875894304183804 -9.368332639867365 0 0 0
1015 1 -4.919728561194471 -13.379946603414187 -12.083718274466245 0 0 0
1097 1 -3.838399099931234 -8.748725461320987 -10.598520116830166 0 0 0
1208 1 -7.387056742417616 -8.573139395170612 -8.726412403866435 0 0 0
1092 1 -7.136751134489787 -13.26393878505708 -7.939319000636769 0 0 0
1103 1 -4.5111409180975155 -12.188219002615446 -7.317269436136559 0 0 0
1093 1 -6.7694917446052605 -11.000287673329856 -7.155768949308244 0 0 0
1301 1 -8.62457696574885 -8.446376110109895 -10.89234967750061 0 0 0
1104 1 -3.7335512750997886 -13.35177345202773 -10.017758171825918 0 0 0
1105 1 -3.1962210349738704 -11.126481897638339 -9.198651279233472 0 0 0
1017 1 -2.0877717585781284 -12.234696858492041 -11.479231082649257 0 0 0
1106 1 -1.8519344545456153 -9.888652094169752 -10.963879286189709 0 0 0
1024 1 0.3211316365950907 -11.041620603821663 -11.115696229223744 0 0 0
1022 1 -0.923987208621682 -12.151126292274704 -9.289005736807233 0 0 0
1118 1 -0.5340754506192695 -9.899918284915287 -8.62344372698794 0 0 0
1030 1 1.5495122471131424 -11.065812161589285 -8.808425417370584 0 0 0
1120 1 0.8148105948198765 -8.628691064216113 -10.474265014650038 0 0 0
1023 1 0.009364724742257025 -13.439734129347361 -11.817887317506614 0 0 0
1107 1 -2.774434852726513 -8.819751417801077 -8.41510594893634 0 0 0
1031 1 1.1206535208363153 -13.391765314453126 -9.547359000981823 0 0 0
1021 1 -2.4101474638337823 -13.291569167736284 -7.687055538599897 0 0 0
1029 1 0.14792623193809895 -12.06366082611532 -7.138127950098274 0 0 0
1032 1 1.83049392208245 -8.804299264124275 -8.328460439958105 0 0 0
700 1 -0.388637961366852 -8.789739562960973 -12.480015770232422 0 0 1
1657 1 2.270983496815756 -13.303792042641486 -7.466634046044164 0 1 0
968 1 2.4501462922491513 -12.270163371034263 -11.342092369636408 0 0 0
1033 1 2.884885033176726 -9.908235808653227 -10.765378676012354 0 0 0
972 1 4.721608573635763 -13.441003158656681 -11.596943371308805 0 0 0
973 1 5.127165142940498 -11.100674757218389 -10.805568659143143 0 0 0
971 1 3.6865964803663864 -12.279075129146566 -9.202497703808412 0 0 0
980 1 5.673680948608002 -13.502247767849285 -9.308850494071947 0 0 0
981 1 6.250870010381629 -11.04767695142238 -8.657404883795364 0 0 0
1044 1 5.342211804470821 -8.747583165242062 -10.090551316209758 0 0 0
1042 1 3.953405121658779 -9.972516307548503 -8.484487419588707 0 0 0
1045 1 6.6110711949561 -8.906978752104292 -8.013057968395866 0 0 0
1035 1 4.293627741017069 -8.765458247428947 -12.269036062880305 0 0 0
941 1 7.157499026441997 -12.402949300155726 -10.985654836199034 0 0 0
974 1 6.371050819983999 -10.003173577870328 -12.591052611633135 0 0 0
991 1 6.882381626787712 -13.486032661488073 -7.140245060242003 0 0 0
982 1 7.530547477970547 -9.945925643105234 -10.417748823955215 0 0 0
993 1 8.771420821659756 -10.111918724643372 -8.171767695012475 0 0 0
944 1 8.28234383782759 -12.36339745802649 -8.918059278389917 0 0 0
946 1 9.718929658984898 -11.35450459864075 -10.58445489175284 0 0 0
938 1 11.85074131258509 -12.761881101635822 -10.669100976478209 0 0 0
953 1 10.765169715340864 -11.467475116744964 -8.347364305347085 0 0 0
956 1 11.181998526239777 -9.0888626067674 -7.53510696364981 0 0 0
995 1 10.188951062763955 -9.035325449717849 -9.786152433288663 0 0 0
955 1 12.217210741029508 -10.430852656573258 -9.929189992775036 0 0 0
984 1 9.029818180910091 -8.799414510120025 -11.76980454161206 0 0 0
947 1 11.005253210328355 -10.262795863004493 -12.20505204521172 0 0 0
1596 1 10.298744814633803 -13.671317605499075 -8.958632434018742 0 1 0
945 1 9.264766784926856 -13.828310006403356 -11.224263959957197 0 0 0
962 1 13.07000432923764 -12.761260052728128 -8.410913065213931 0 0 0
932 1 13.074954702345817 -11.70960806946243 -12.424490898146408 0 0 0
1289 1 13.432639998108204 -10.440479396962207 -7.804930985978289 -1 0 0
935 1 14.359021595008588 -11.724523956563528 -10.173379928155931 0 0 0
1288 1 13.608096136008228 -9.273829983274386 -11.780875349530792 -1 0 0
1292 1 -13.34541304548927 -8.372345651271317 -11.270411761735428 0 0 0
1291 1 -14.166398873476357 -7.055457526429958 -8.823689328242612 0 0 0
1293 1 -10.809067772452213 -7.314762379481593 -10.657505270634646 0 0 0
1398 1 -12.866034062418292 -6.0334483628862605 -10.58523230158304 0 0 0
1298 1 -11.684263412333074 -6.12255597295702 -8.294374754409676 0 0 0
1403 1 -10.270111998260393 -5.0991838588770335 -10.047012434525508 0 0 0
1411 1 -11.29666190969148 -3.813586265440236 -7.704295585251303 0 0 0
1504 1 -12.41201057629339 -3.5890624586379243 -9.818594821038479 0 0 0
998 1 -13.709510181491854 -4.7868700812163425 -8.181526550364598 1 0 0
829 1 -13.627547953402942 -3.599192119663373 -12.090766056262058 0 0 1
835 1 -11.587710800799648 -4.894373534028123 -12.224191715562853 0 0 1
1404 1 -9.611968193007778 -7.432620197149564 -8.446071605046699 0 0 0
760 1 -9.392207009234092 -6.087756491651052 -12.304316157355037 0 0 1
1311 1 -9.160744006925032 -5.095278916522441 -7.768977111890355 0 0 0
759 1 -8.866461870151895 -3.913922705759438 -11.74523361655586 0 0 1
1197 1 -5.906974219428191 -7.693886296267375 -10.42044929676537 0 0 0
1199 1 -4.720980442016748 -6.361015679863603 -12.15397655694305 0 0 0
1302 1 -8.128499903845178 -6.233124926387311 -10.22568856985896 0 0 0
1312 1 -5.5863335384176 -5.212939110123257 -9.80920210351589 0 0 0
1314 1 -4.2714235011114265 -4.003402247881752 -11.42011239827584 0 0 0
1415 1 -7.675057439403728 -3.940987037151981 -9.47926930374868 0 0 0
663 1 -6.792959626630993 -5.1951749785215195 -11.987917410157285 0 0 1
1209 1 -4.843027197679369 -7.560923807922257 -8.173840870525126 0 0 0
1310 1 -6.913833054868033 -6.268632161192866 -8.061301242845634 0 0 0
1324 1 -4.403314284217151 -5.17559649683853 -7.537806935559401 0 0 0
1313 1 -6.627070251411784 -3.974811682774586 -7.232240107622988 0 0 0
662 1 -6.445870626763384 -2.8394753455675037 -11.39179782768074 0 0 1
1427 1 -5.216260212998593 -2.8887953065642353 -9.167745197732467 0 0 0
1210 1 -3.5646223527975565 -6.39058978085489 -10.042163652188176 0 0 0
777 1 -7.256756699183315 -7.4653027362226645 -12.707486462801398 0 0 1
1211 1 -2.9133543405274107 -4.129121234590592 -9.198165789344976 0 0 0
1108 1 -1.4408394450710311 -7.612788494029005 -10.240088604004933 0 0 0
1212 1 -2.0333153031522055 -5.319943938736406 -11.7206911518017 0 0 0
1224 1 1.2182908664953604 -6.423779443592311 -9.70593229373814 0 0 0
1109 1 0.010420883864275865 -6.431458421731056 -11.94050885089497 0 0 0
1226 1 0.49391745050314384 -4.196572863188068 -11.24704986535305 0 0 0
1225 1 -0.9030643222123551 -5.360032498712927 -9.503607341211175 0 0 0
1119 1 -0.24964944104039333 -7.550129110295571 -7.9037332469810355 0 0 0
1222 1 -2.4457925917499015 -6.373797243067768 -7.768652983357563 0 0 0
1236 1 1.7496259488798458 -4.052550762675459 -9.006892042640441 0 0 0
682 1 -2.6039897477486846 -7.6463174821086 -12.443275502411716 0 0 1
1234 1 0.19698005348481473 -5.2852038096303655 -7.292907077285066 0 0 0
1213 1 -1.7026773962829456 -2.930075107459956 -10.909722978338682 0 0 0
1238 1 -0.46481956439356864 -3.033171994379492 -8.771764391258394 0 0 0
1026 1 2.1445674355685007 -7.519780244863856 -12.088603415310084 0 0 0
1122 1 2.593458574709544 -5.174816844122519 -11.384011303987172 0 0 0
975 1 6.834918722574379 -7.7479221055641085 -11.830365913291525 0 0 0
1034 1 3.3762584700837124 -7.5845358788168475 -9.912433984466173 0 0 0
1046 1 6.05994332442366 -6.457663759029536 -9.516651279791622 0 0 0
1036 1 4.736777323314609 -6.4623916698189205 -11.661222469400574 0 0 0
1047 1 6.287055955093553 -4.009326217067903 -8.723997341077006 0 0 0
1134 1 3.9138569931397846 -5.256187851153225 -9.336057123783208 0 0 0
1136 1 5.251786986919107 -3.9863203444053568 -11.10487952894471 0 0 0
1043 1 4.3795460347906605 -7.7464148511003295 -7.798844739586677 0 0 0
1132 1 2.386735710300293 -6.458561423946783 -7.505559426935746 0 0 0
1133 1 4.216518568742888 -2.926761645845419 -8.510639895562349 0 0 0
1048 1 7.294273911430526 -5.3195903052336835 -11.263000880736383 0 0 0
1123 1 3.059518240309405 -2.84160569702426 -10.726322655239882 0 0 0
1137 1 6.7620239189662605 -2.960053979162314 -12.635454414194115 0 0 0
1049 1 7.682422471190126 -2.9842674801957347 -10.50462389713849 0 0 0
1396 1 12.598329906258833 -8.144177389771396 -9.322352413649387 -1 0 0
983 1 8.121102867128759 -7.707509153978573 -9.570622994084681 0 0 0
1060 1 8.49344516869008 -5.299703664056537 -9.005920046255788 0 0 0
948 1 11.50127168937486 -7.986321128244572 -11.542250553136075 0 0 0
985 1 9.420225639884226 -6.595073007358255 -11.315846034476417 0 0 0
997 1 10.463414299430198 -6.780940382179729 -9.219303915221948 0 0 0
996 1 9.08259455874045 -7.781995788859726 -7.423456789917926 0 0 0
1061 1 9.92727640626321 -4.2164101291249665 -10.772694442051698 0 0 0
1072 1 11.023255344532682 -4.33584646128228 -8.534733503930745 0 0 0
90 1 11.951276770348926 -5.585599139392686 -10.820992650732164 0 0 1
1074 1 12.526523690395845 -3.3772915520650706 -10.207543813782838 0 0 0
1160 1 9.015701500239597 -3.063465789098995 -8.322386477901937 0 0 0
1062 1 11.299477581091072 -3.141185438839999 -12.469648427136647 0 0 0
106 1 13.116796052721234 -5.797950139380687 -8.681364076013043 0 0 1
832 1 13.370369965417446 -4.618418479065257 -12.452833062988166 -1 0 1
1503 1 14.599402451226354 -4.679719814327267 -10.37422670251462 -1 0 0
1397 1 14.008115417737336 -6.996687218055124 -10.986563475906703 -1 0 0
1008 1 13.440957138149681 -3.41416170886761 -8.108401569967512 0 0 0
1400 1 13.804512385297912 -8.120531519839467 -7.164061621284515 -1 0 0
1413 1 -9.778115990445189 -2.7127802684724784 -9.312482384098344 0 0 0
746 1 -11.072563023347852 -2.709605315289874 -11.462422780185872 0 0 1
1506 1 -13.019626562940466 -1.264796528289125 -11.307086916594422 0 0 0
1507 1 -10.576232756510947 -0.3382949906060073 -10.820225297503177 0 0 0
1513 1 -11.92958422709156 -1.46086056564533 -9.116743147540456 0 0 0
1605 1 -12.773794112744845 0.9598741667277384 -10.447680711369216 0 0 0
1512 1 -11.444502943155216 0.7783848966467666 -8.364830239375138 0 0 0
1505 1 -14.031564815763389 -0.15575799854140016 -8.726715516818015 0 0 0
1607 1 -10.18432005293028 1.7530034448581535 -9.979355563419823 0 0 0
1511 1 -13.345931160928421 -2.4504606379855858 -7.500444369286996 0 0 0
1514 1 -9.378208976149175 -0.3738088872574643 -8.556780674024875 0 0 0
744 1 -11.483933784161355 2.0487707646431623 -12.16857410564373 0 0 1
1603 1 -14.458779917819799 -2.4459050594435165 -9.668149545072554 0 0 0
648 1 -9.264096841537508 0.8292854923583128 -12.47829056913417 0 0 1
1604 1 -13.371911418175458 2.6319472421262766 -8.692240775707432 0 0 0
1601 1 -14.304502672314046 2.829444634780483 -11.110477932597355 0 0 0
1614 1 -8.98515811955653 2.051040472400768 -7.75321321517433 0 0 0
1405 1 -8.558930961712026 -1.6033659394209572 -11.065613940990357 0 0 0
1416 1 -5.9264993468959375 -0.5373845034818618 -10.621652536067089 0 0 0
1515 1 -8.002067099519898 0.70727763179144 -10.23703556123514 0 0 0
1526 1 -4.893702439312838 -0.5329464037299356 -8.264276120507677 0 0 0
1414 1 -7.345146803172667 -1.6148248018731195 -8.84221829856012 0 0 0
1616 1 -6.934586724875766 0.7500281813217669 -8.04242494840014 0 0 0
1538 1 -4.400242215385182 1.7996775834798022 -7.487808016785116 0 0 0
1516 1 -5.7162705907984215 1.8668543227530865 -9.676246994064076 0 0 0
540 1 -6.840065815357438 1.8768062149532927 -11.898035377751807 0 0 1
552 1 -4.686130018447882 0.6135060682891122 -12.206524638119092 0 0 1
1315 1 -3.753040520586703 -1.619389859311104 -10.788118941060198 0 0 0
660 1 -7.111776347879176 -0.5071602224337006 -12.68368113503621 0 0 1
1429 1 -3.538696553743513 0.6842372820721643 -10.041703193842258 0 0 0
1326 1 -0.13451170310844596 -0.5200404766098412 -8.157428017806932 0 0 0
1428 1 -2.347370725752233 0.4660631684404777 -7.859761110312779 0 0 0
1227 1 0.9419459158923331 -1.7160987149064848 -10.559515772890405 0 0 0
1329 1 -1.3206659300624253 -0.553909342720118 -10.300367719125083 0 0 0
1327 1 -2.7307090690493716 -1.7481766458324088 -8.539834376638314 0 0 0
1441 1 -1.1130755488835913 1.6870361144083024 -9.475051028713768 0 0 0
443 1 -1.9688245649859955 1.8813597555544028 -11.77479888639669 0 0 1
1340 1 1.3442503012909306 0.6759828905649226 -9.93213471767281 0 0 0
340 1 0.09484609211086159 0.5474875009109983 -11.974872378590412 0 0 1
1440 1 0.2909120171755344 1.7334031144829805 -7.405778035668781 0 0 0
444 1 -2.4341033253513444 -0.44088617804980856 -12.518761968990347 0 0 1
1328 1 -0.3966620727493577 -1.7779458430460107 -12.63584166205616 0 0 0
1135 1 2.016744323996768 -1.6609840575971102 -8.357291405491482 0 0 0
352 1 2.342313584958543 -0.4821075596111477 -12.223700063140399 0 0 1
1148 1 6.752811054304402 -1.7186804305956596 -8.11816882240293 0 0 0
1252 1 5.639239924519142 -1.7022624661961085 -10.386033887310504 0 0 0
1339 1 2.4827337586639793 0.5667729364684853 -7.686656091088552 0 0 0
1342 1 2.6912892868812293 1.8679077442345875 -11.621490718319397 0 0 0
1241 1 4.864406507631735 0.6634224510408941 -11.873188514416507 0 0 0
1254 1 7.091797948534939 -0.6329133318246214 -11.973596567976928 0 0 0
1239 1 3.4611529629822897 -0.48663465604897915 -10.13861507013096 0 0 0
1354 1 3.9698114475109563 1.7614744992090916 -9.441962982434505 0 0 0
1253 1 6.102143950518329 0.6399519835105654 -9.642892715363711 0 0 0
1352 1 4.573313761532447 -0.6402507214012463 -7.882646835000071 0 0 0
1264 1 7.333634005384802 0.8042496894812743 -7.6151994001737044 0 0 0
1240 1 4.566064395434548 -1.7242742757050742 -12.540740032902585 0 0 0
1255 1 7.520891055953864 1.7171344388826455 -11.519950173894763 0 0 0
1366 1 6.61754127304172 2.9859939204393022 -9.109859041017685 0 0 0
1251 1 5.10374131824917 1.7714579754884472 -7.294948117614389 0 0 0
1150 1 9.23929754870709 -1.885794032148656 -12.31015185906781 0 0 0
1171 1 11.435431486847722 -2.0157718742114294 -7.7870556436706835 0 0 0
1149 1 8.328288989628366 -0.6736187091162762 -9.97241899340575 0 0 0
1266 1 8.762468230499948 1.7699352237905224 -9.325873540315422 0 0 0
1063 1 11.845593758939359 -0.8366837647750138 -11.807933145525698 0 0 0
1151 1 9.740589576753884 0.624751871014551 -11.627256669221154 0 0 0
1164 1 12.543713834650308 1.6334229709226982 -11.31874673522763 0 0 0
1162 1 10.381008814641195 -1.9191652254043632 -10.084640267682895 0 0 0
1161 1 9.388290390631042 -0.6745796660469559 -7.673742231725389 0 0 0
1173 1 10.904466510580662 0.42302171821818213 -9.518676891969948 0 0 0
1075 1 12.95504581525989 -0.9609737033056636 -9.49473110743502 0 0 0
1172 1 12.16445727526526 0.4499061571486056 -7.243903339392943 0 0 0
1276 1 9.987835520344827 1.6125260283224705 -7.180028386471159 0 0 0
1599 1 13.659316723901714 1.6090127537577104 -9.118810978200367 -1 0 0
1600 1 14.431031412549874 0.02021593890257556 -11.237614591602824 -1 0 0
1502 1 13.861796519241718 -2.2005472592913176 -11.869402485977892 -1 0 0
1073 1 13.97843957146512 -1.1197974781529823 -7.259231253575977 0 0 0
1606 1 -11.865136059940374 3.8095996394527916 -10.41754844223661 0 0 0
1675 1 -11.065124436792841 6.266405139627867 -10.38508825458245 0 0 0
1681 1 -11.231014460712558 3.165510419413483 -7.594853850919606 0 0 0
1673 1 -12.739267761133789 5.126600120734739 -8.357838744053177 0 0 0
1725 1 -13.190311633633508 7.575302041271911 -10.18217149242114 0 0 0
1683 1 -9.83035514622038 4.075357658592328 -9.202681838359524 0 0 0
1674 1 -13.95718189193721 5.204273941290687 -10.561942266956114 0 0 0
1677 1 -9.7821898030368 7.6841585409611675 -12.155972763571006 0 0 0
1676 1 -12.239452063242345 6.340142391774133 -12.49730420996616 0 0 0
1617 1 -9.645676398874246 6.46736965171991 -8.397933497177746 0 0 0
1729 1 -11.964951050377696 7.498128791398596 -8.01145078203102 0 0 0
1726 1 -14.408264748229389 7.668037056401509 -12.342598062338853 0 0 0
637 1 -10.121987995635067 5.154925726502217 12.595122114241887 0 0 0
647 1 -8.967488285784185 3.0577400317483736 -11.574438478320534 0 0 1
433 1 -4.369570504177348 3.0881477691329913 -11.518280404137496 0 0 1
1608 1 -7.720855570820411 2.94790126402118 -9.454218057784189 0 0 0
1618 1 -8.692014454571535 5.436796324426698 -10.92028629684961 0 0 0
1619 1 -6.112972366108375 6.471074709414907 -10.50817988117969 0 0 0
1527 1 -7.4370220772554285 5.328708783475243 -8.782671990398377 0 0 0
539 1 -6.457408638228047 4.230025914048085 -11.267547440245473 0 0 1
1529 1 -4.929694045728905 6.436551922733667 -8.21193959863783 0 0 0
1528 1 -5.305989299291035 4.197243933880376 -9.011757657941326 0 0 0
1628 1 -6.541021814188403 3.0518080147512627 -7.252821513180309 0 0 0
431 1 -4.902534693419604 7.662519542551326 -12.10437061178681 0 0 1
1685 1 -8.225160224537909 7.608290219063047 -10.074495168867635 0 0 0
1694 1 -7.156398361831881 7.616081622804128 -7.979634295097709 0 0 0
1632 1 -4.002544002287353 5.281301771522738 -10.711290480589883 0 0 0
537 1 -7.40676466109893 6.51461729513758 -12.647779529331096 0 0 1
1633 1 -3.54335116680042 7.594011045949639 -9.986922172747512 0 0 0
1443 1 0.39783449310810504 2.82422913361998 -11.277062405306344 0 0 0
1341 1 1.6678035570059606 2.9041025808888357 -9.213796727564759 0 0 0
1430 1 -3.2228835161619394 3.0239744173035206 -9.267129350852187 0 0 0
1542 1 -1.8287676597558935 4.0484660278842455 -10.993841170838566 0 0 0
1444 1 0.7810205592721413 5.212196545024231 -10.690309968974496 0 0 0
1543 1 -1.4060272713770168 6.398810248815376 -10.235509085974456 0 0 0
1541 1 -2.7827841066777843 5.260868375900571 -8.45211689142374 0 0 0
1442 1 -0.5142418833166236 4.031715892626234 -8.88198750264697 0 0 0
1553 1 -0.20803392233033513 6.452639021936459 -8.012330237361002 0 0 0
226 1 0.1491046530043718 7.484360751757347 -11.899594073116933 0 0 1
1554 1 1.031142005302005 7.594145501882842 -9.831875070291382 0 0 0
1642 1 -2.336521462000535 7.565061485497292 -7.732496363313138 0 0 0
329 1 -2.8078652094236016 6.4618184269816155 -12.470566116947916 0 0 1
1540 1 -1.8886897015825994 2.915756266552517 -7.094098453985271 0 0 0
1455 1 2.037288124526878 5.2482070509641865 -8.415905649752617 0 0 0
337 1 -0.4428851363052875 5.238737896626262 12.706723205014521 0 0 0
1457 1 2.2123600157269188 6.296448723132521 -12.246860253346423 0 0 0
1356 1 5.1608962816688475 3.101195906067023 -11.174730028992045 0 0 0
1565 1 2.305127764944565 7.622866973344099 -7.619928002066523 0 0 0
1343 1 2.9274294735934987 4.134765166505947 -10.976923490794354 0 0 0
1456 1 3.205808149619724 6.467134058015972 -10.097819058245676 0 0 0
1355 1 5.656347488175925 5.3549734635515875 -10.403575792889324 0 0 0
1466 1 4.305654776134105 4.186358094794016 -8.542656903070148 0 0 0
1467 1 4.619315764239154 6.460461903362319 -8.140499697273746 0 0 0
1458 1 4.564994043150147 7.581058234507747 -11.689594631142302 0 0 0
1367 1 6.903660569308318 5.336774145767752 -8.448016017660999 0 0 0
1470 1 7.1038537363100325 6.495246197158366 -12.337915105940299 0 0 0
1468 1 6.414082150434016 7.925232688335729 -10.09039267222116 0 0 0
1478 1 7.07305641534294 7.571543374992405 -7.58175393504942 0 0 0
1357 1 4.539425188304616 5.238794404478799 -12.699568561971292 0 0 0
1163 1 11.337658670963219 2.8699804949297665 -9.037318091250986 0 0 0
1268 1 10.295261468976193 2.972036368932045 -11.07979532621517 0 0 0
1368 1 7.891648950839773 4.147353061842562 -10.79964729960507 0 0 0
1369 1 8.449662642051631 6.554983100961195 -10.355403051387313 0 0 0
1269 1 10.695495843351537 5.406607340891114 -10.49670153905777 0 0 0
1371 1 10.056889329461619 7.719447116417875 -12.130451132470872 0 0 0
1380 1 11.281409115297215 7.732025789220394 -10.132301695592703 0 0 0
1267 1 9.136285193450274 4.077607638091919 -8.757567929159853 0 0 0
1277 1 11.927424782750968 5.358847946354672 -8.519623690046977 0 0 0
1378 1 9.446957740964045 6.4429950710996025 -8.224985667876126 0 0 0
1382 1 12.302524947488791 6.5652611168735895 -12.445614458502428 0 0 0
1278 1 12.899054790831112 4.013976110164133 -10.875892795191817 0 0 0
1388 1 13.027708607699836 7.980427359039108 -8.295530954092083 0 0 0
1285 1 -14.714925029685102 6.256855214831653 -8.212000537146427 1 0 0
1279 1 13.495891577687722 6.525014370580681 -10.355890107687571 0 0 0
1174 1 14.093280108733364 4.038622541559619 -8.768477424114367 0 0 0
1179 1 -14.364450306121158 13.751303210767688 -8.617707073622583 0 -1 0
1740 1 -9.373473246317353 8.779693366601506 -7.811893438821341 0 0 0
1765 1 -11.935333396324738 8.769877980456773 -11.880913348269495 0 0 0
1733 1 -10.596607134088707 8.648180510926824 -9.856889180942526 0 0 0
1085 1 -10.882937249481364 13.515950762425405 -10.654572246060681 0 -1 0
1771 1 -9.674505918783728 13.371300636433716 -8.47032173874307 0 0 0
1731 1 -14.121500362104255 8.795436225140183 -7.771754090240911 0 0 0
1185 1 -12.289511292578613 12.317928430068672 -8.917220546697758 0 -1 0
1180 1 -13.40985952828323 12.51842438996687 -11.208984371365359 0 -1 0
1763 1 -12.607440545437013 9.965843561619732 -9.702885876785825 0 0 0
526 1 -11.429270965894737 11.193481799470163 -11.273484864362102 0 0 1
1734 1 -10.218303357340826 11.166844528898807 -9.148320729115751 0 0 0
1759 1 -13.974294852490381 10.182952662602116 -11.80570287891108 0 0 0
1732 1 -11.680844329130244 9.891672145058479 -7.501131175837962 0 0 0
1764 1 -13.648341916361797 11.259814547678527 -7.1996825413654895 0 0 0
530 1 -9.207399802176933 9.969025596699215 -11.497649647139026 0 0 1
1630 1 -5.75182655179594 8.685513986807951 -9.629972614087116 0 0 0
1088 1 -8.746755877299023 12.344155490070278 -10.855552651555065 0 -1 0
1696 1 -8.06500755256146 9.985374462611368 -9.316983758951526 0 0 0
1686 1 -7.538996973873305 12.329747731258653 -8.660518283924617 0 0 0
1698 1 -4.5926420956054645 9.939162931405342 -11.335735244674517 0 0 0
1744 1 -6.603146251128074 11.084253796509149 -11.122873837042327 0 0 0
1743 1 -6.265071119773056 13.444932254687288 -10.315584137833536 0 0 0
1697 1 -5.434027335998925 11.031966212639627 -8.853576332778205 0 0 0
1102 1 -5.170446229230109 13.363166265712817 -8.098781146298927 0 -1 0
425 1 -7.053393066534313 8.745301752648857 -11.725652177660912 0 0 1
1016 1 -4.064623565634882 12.226199972237747 -10.55808405896132 0 -1 0
868 1 -7.340834367492672 13.311625435443379 -12.572658107085411 0 -1 1
1707 1 -4.568584660293913 8.735368394926375 -7.517635508922425 0 0 0
1631 1 -3.170286334664711 9.936374854629701 -9.208046788611895 0 0 0
1708 1 -2.8778740605298196 12.300615518686492 -8.535321807636072 0 0 0
328 1 -2.1241813441986572 8.632750776662125 -11.72727652277922 0 0 1
1753 1 -2.708291644450922 13.432499070623688 -12.311234587366288 0 0 0
1644 1 -1.096687758356591 8.674640512049809 -9.58169955934613 0 0 0
1709 1 -1.8686853492464905 11.104302049757045 -10.88193689568318 0 0 0
1646 1 0.2889196387380526 9.851368418315253 -11.145056236107356 0 0 0
1645 1 0.7780387246227836 12.180379215789912 -10.450686988614311 0 0 0
1710 1 -1.5788961628378004 13.509915374462643 -10.111274395923154 0 0 0
1643 1 -0.6415474128874106 11.02960573878332 -8.646565068195555 0 0 0
1654 1 0.1009048006537796 8.720098713041615 -7.319257214620972 0 0 0
1555 1 1.447160256941963 9.8340421065711 -9.014895337285077 0 0 0
1719 1 -0.2981400936804359 13.38334035596927 -7.973269385793173 0 0 0
1656 1 1.9074084967573341 12.262201000750657 -8.221172847077401 0 0 0
1699 1 -0.5448858501596661 12.226308076291922 -12.547376912988502 0 0 0
1711 1 2.1679406834926347 13.248075638143892 -12.058766822898107 0 0 0
1556 1 2.478540116882801 8.726780062159339 -11.271907974664686 0 0 0
1567 1 3.9485377846317533 8.577620416818757 -9.102449034955255 0 0 0
1557 1 2.858161908540538 11.003639712554055 -10.751998805651786 0 0 0
1666 1 5.383938679196191 12.133451822297996 -10.120591583810741 0 0 0
1469 1 6.149978387071101 9.730870944193395 -8.505910383276328 0 0 0
1569 1 5.110881461403785 9.777478113838765 -10.833022768466684 0 0 0
1568 1 4.0169664229843 10.950597942055111 -8.499162413053838 0 0 0
943 1 6.520800371194898 12.060932177734724 -7.820968100531045 0 -1 0
978 1 4.326941955976203 13.281320271892383 -7.5107906261314055 0 -1 0
1647 1 3.2809300101871024 13.392638977713986 -9.944000928609722 0 0 0
1570 1 6.741108965569346 13.173978422077003 -11.770063784882897 0 0 0
1658 1 4.22204780111036 12.13894208573327 -12.321235731747423 0 0 0
1581 1 7.372579258711333 10.66294396460965 -10.279492742592048 0 0 0
58 1 6.318591440909881 10.991639577541353 -12.589887106178253 0 0 1
1577 1 4.914359333127091 8.68176663269551 -6.822497980685928 0 0 0
1471 1 8.033786870913517 9.061015290565138 -12.094843139636529 0 0 0
1480 1 8.827878939947603 8.845219264435553 -9.69861933996872 0 0 0
1381 1 12.8443826833795 8.880792933051687 -12.033889430646786 0 0 0
1482 1 10.638617047953545 10.135782200621627 -11.888922795616107 0 0 0
1589 1 11.287979002406772 12.697697691315216 -11.318106005508758 0 0 0
1481 1 9.831720496748048 11.58082656363959 -9.836129068864317 0 0 0
1490 1 10.749447350547872 9.234224840426862 -8.326315498040286 0 0 0
1492 1 11.113531081319316 11.704245728813458 -7.646524493512298 0 0 0
1588 1 8.520431353208739 10.705588044782342 -8.007202699008289 0 0 0
1383 1 12.064137330593717 10.391565589709757 -9.851240971760367 0 0 0
1580 1 7.772740372715159 13.187136941614948 -9.572638114053145 0 0 0
1590 1 8.677762081985975 11.65677440105496 -11.932991154582478 0 0 0
951 1 8.922727646780949 13.086358221389755 -7.39956134589134 0 -1 0
1493 1 12.417638309298596 12.93185237624942 -9.138829586744325 0 0 0
1483 1 13.290934103615808 11.483754797512653 -11.6451869092265 0 0 0
1777 1 14.7083295197593 11.518020977114091 -9.403060238869573 -1 0 0
1762 1 13.338176477172418 10.469945333312214 -7.708385404515334 -1 0 0
933 1 13.972863578702764 13.67556402765413 -10.831257037883155 0 -1 0
1390 1 14.236283488564776 9.067257550256429 -10.04172984521502 0 0 0
1778 1 13.797801562666677 12.657140469417566 -7.019789604039865 -1 0 0
1193 1 -12.853091237260076 -11.855379035941738 -5.8636358392779835 0 0 0
1191 1 -14.278540217549965 -12.938702456406116 -4.101544676380058 0 0 0
1204 1 -10.294939654307946 -10.958841260113248 -5.295086246783259 0 0 0
1304 1 -13.8272131881045 -10.688988341512008 -3.3844869209637665 0 0 0
1308 1 -12.314278373037048 -9.657818818399 -5.2823540128550555 0 0 0
1202 1 -11.811487306344494 -12.034493109986734 -3.693872599674961 0 0 0
1090 1 -10.703581802334755 -13.155362984314074 -6.0503858809240905 0 0 0
1201 1 -11.309812677581586 -9.679177742113737 -2.8716869854195988 0 0 0
1099 1 -9.691020338076616 -13.228197892684406 -3.850190914331314 0 0 0
940 1 -12.986239034807944 -13.199199977881483 -1.9665833892483757 1 0 0
1203 1 -9.806200608703254 -8.60405317404809 -4.658699856936366 0 0 0
1300 1 -10.935624137650601 -8.554591371340162 -6.810695617418246 0 0 0
1214 1 -9.115909494711733 -11.061405507591585 -3.1928696729095414 0 0 0
1206 1 -8.81640712849963 -9.77866237183902 -6.914669604884657 0 0 0
1316 1 -8.58410721629906 -8.719015009191008 -2.4421892729170196 0 0 0
1100 1 -8.177011206480756 -12.112963050803952 -5.403288905211075 0 0 0
1216 1 -7.581949336568451 -9.939831155089315 -4.810549288993659 0 0 0
1113 1 -5.45519705539175 -11.062904806571513 -4.920596824372202 0 0 0
1220 1 -4.203873332199329 -9.935044542376566 -6.64123134060071 0 0 0
1112 1 -6.996197486991747 -12.212527714237245 -3.163527791800421 0 0 0
1124 1 -4.396822704131857 -10.949083089918648 -2.8393829813466045 0 0 0
1101 1 -6.054329266357314 -13.345243894175669 -5.657673547648086 0 0 0
1215 1 -6.520837086063439 -9.89158377655514 -2.6680577730376953 0 0 0
1020 1 -4.664263855075896 -13.354930301027546 -3.5130370485096787 0 0 0
1217 1 -5.1215205094862775 -8.688212681925425 -4.297801587682667 0 0 0
1228 1 -3.8878679914835743 -8.63377475251807 -2.1805899062585965 0 0 0
1218 1 -6.292705072043837 -8.620333799702973 -6.468090168995775 0 0 0
1110 1 -8.463827458086921 -13.310299573585981 -1.6249557164964479 0 0 0
1114 1 -3.3644170105889515 -12.267320811650498 -5.240480867384058 0 0 0
1116 1 -2.04926875175504 -11.068603624537863 -6.935366028747254 0 0 0
1115 1 -2.9406297336482545 -9.91070562955312 -4.371371534785627 0 0 0
1126 1 -2.232053871893651 -12.284434143110213 -3.0945421465138576 0 0 0
1028 1 -0.8973532234894783 -11.093029417063512 -4.6895582825250575 0 0 0