LAMMPS data file via write_data, version 23 Jun 2022, timestep = 0

1861 atoms
3 atom types

-13.121648228297092 13.121648228297092 xlo xhi
-13.779292451783016 13.779292451783016 ylo yhi
-15.162132600806967 15.162132600806967 zlo zhi

Masses

1 55.847
2 1.008
3 1.008

Atoms # atomic

1229 1 -12.4989685822847 -12.978441854536356 -14.638995858909704 1 0 1
177 1 -10.187985056723742 -12.898141863023433 -13.564830732735242 0 0 0
1347 1 -11.663001181726525 -11.412030880991555 -12.414949119209014 1 0 1
294 1 -11.477086085093013 -10.678238474010218 -14.749495657523225 0 0 1
947 1 -0.08458433055340997 -9.52332257073633 -4.213287858943881 0 0 0
224 1 -7.772888730013962 -12.18272567536787 -14.711702646860992 0 0 0
179 1 -9.300665063166052 -10.635671115034226 -13.574770312775332 0 0 0
187 1 -7.16666204809577 -10.492995753668628 -12.443964422005067 0 0 0
175 1 -8.066946406960835 -12.888849172947575 -12.210103134439924 0 0 0
215 1 -5.5769092511089955 -12.10315866170894 -13.578247131806066 0 0 0
66 1 -12.925884640387476 -3.463515806519071 -3.370991076404417 0 0 0
214 1 -3.3864601975947206 -12.146348129046306 -12.474977939664457 0 0 0
609 1 -0.8528947029514864 -11.493230952212611 -13.445537257194779 0 1 0
221 1 -3.228481375293221 -11.35803961542576 -14.835217012659855 0 0 0
63 1 -2.934846079460785 -0.4429663245018727 -1.1710424183075467 0 0 0
149 1 -10.921522513096216 -9.12012832787629 -12.468487002659375 0 0 0
200 1 -10.71725500401655 -8.344736962612728 -14.974751124820493 0 0 0
315 1 -6.4006618148895065 -3.398118643181796 -0.12406253654611987 0 0 0
382 1 -6.889667865449343 -9.940579239090486 -14.713635419714173 0 0 1
189 1 -8.468378116443917 -8.307272782800936 -13.674364171077452 0 0 0
228 1 -4.66451090943278 -9.824064906810323 -13.731496492690752 0 0 0
197 1 -6.220741513355831 -8.37235414670036 -12.639602567544696 0 0 0
389 1 -3.7178795055165192 -7.591461913540983 -13.748246930431707 0 0 1
198 1 -5.961719325638668 -7.588089902528018 -14.915338840751092 0 0 0
225 1 -1.6091246104508166 -7.485443704519825 -12.388472977382957 0 0 0
196 1 -2.4365961800505715 -9.838344126923264 -12.482492944685786 0 0 0
222 1 -2.234317303506886 -9.21323712840395 -14.780891304298747 0 0 0
230 1 -1.2532759958725421 -6.861594379905474 -14.81601708750085 0 0 0
944 1 -1.5032178619364895 -2.003980610305005 -2.395967068271437 0 0 0
1157 1 -12.092304527095814 -6.819551141058741 -13.866785653581168 1 0 0
208 1 -9.97207410134076 -6.863453983845418 -12.636494102717208 0 0 0
1397 1 -11.165608343642834 -4.48284240073952 -13.901136509607383 1 0 1
410 1 -9.772512062406793 -6.024532719565292 -15.018292669459425 0 0 1
168 1 -9.160065753576234 -4.574535702607383 -12.666994539714802 0 0 0
199 1 -7.535046957600969 -6.043942683885542 -13.701121491274385 0 0 0
207 1 -6.69631944294653 -3.746232202451818 -13.91108411151002 0 0 0
169 1 -8.712543977787359 -3.908644553668763 -15.094066127663002 0 0 0
206 1 -5.2265348062527295 -6.098697211617815 -12.675165892465413 0 0 0
24 1 -4.418255901763191 -3.7456155945858534 -12.836904503968135 0 0 0
407 1 -4.912609264983233 -5.361654337098704 -15.07756139095583 0 0 1
229 1 -0.5942811354692683 -5.202255050909576 -12.661298586692707 0 0 0
205 1 -2.822854634409955 -5.2617818972853545 -13.896028092977225 0 0 0
984 1 -0.17019878777054487 -4.619877552650506 -15.105212052256237 0 0 0
1022 1 -12.8056681309742 -3.0056978365852807 -12.867547980046652 1 0 0
1015 1 -10.36965436047062 -2.2581884363951144 -14.06237509844084 1 0 0
519 1 -11.973486475981382 -0.7082225575196581 -13.020836620389977 0 0 0
13 1 -8.27069138688315 -2.2453175556959373 -12.819319443700529 0 0 0
167 1 -5.749341160952979 -1.4776215170892577 -13.950739084781413 0 0 0
613 1 -3.4208579319523302 -1.4751657022936548 -12.764190573514673 0 0 0
211 1 -0.044922012928473976 -9.093428324185512 -13.690983925415663 0 0 0
237 1 -1.8170324452009883 -3.083414532415084 -13.992628773811344 0 0 1
23 1 -1.0594235690233695 -0.7307312943346158 -14.142403790979019 0 0 0
261 1 -1.8251967621562653 -2.602410272797748 -0.0568449703321825 0 0 0
190 1 -12.127004462368257 -12.138981705230274 -10.118775455817017 0 0 0
176 1 -8.317198479011225 -13.603112162675027 -9.872698349279954 0 0 0
188 1 -9.657674211614975 -11.365198014566518 -11.17942575133541 0 0 0
186 1 -7.3055684989235745 -11.409608307029433 -10.151432508398337 0 0 0
173 1 -5.798239884630874 -12.87839473794223 -11.27231959208615 0 0 0
563 1 -3.567420483896056 -12.848739915064897 -10.006640544361275 0 1 0
185 1 -4.838834682706544 -10.423306348983168 -11.299386833811003 0 0 0
219 1 -1.081989932829103 -12.072193890963668 -11.095370652394328 0 0 0
213 1 -2.6486366067963463 -10.597603061173974 -10.105497716512367 0 0 0
1158 1 -12.434735497280943 -7.600609035805199 -11.40382249352869 1 0 0
148 1 -11.279703597894551 -9.924662850093616 -10.126539398836865 0 0 0
158 1 -10.269142803426503 -7.5192253056438325 -10.189697935328331 0 0 0
147 1 -8.763963917510694 -9.034822570054155 -11.345717663223894 0 0 0
156 1 -8.1096331172019 -7.542816209317709 -9.131601585543015 0 0 0
145 1 -6.43395508447051 -8.938616068528837 -10.265376424853756 0 0 0
195 1 -3.9666836472848104 -8.293442592598666 -11.413543104285592 0 0 0
181 1 -1.7576294210483958 -8.291224880100195 -10.072162381182517 0 0 0
218 1 -0.1346051862929265 -9.833923058975348 -11.356166875237555 0 0 0
125 1 -11.467557045995656 -5.317558125944137 -11.498736362981807 0 0 0
115 1 -10.878128256451292 -3.7697943988731737 -9.158003844042533 0 0 0
159 1 -11.891312098787374 -5.9662639690485415 -9.092076701010303 0 0 0
1014 1 -13.059587139445124 -3.7306502412754696 -10.448281514285043 1 0 0
157 1 -7.780892608657848 -6.8332835320663685 -11.414065150623896 0 0 0
166 1 -9.423990712368415 -5.26114263108996 -10.363211736015348 0 0 0
165 1 -6.880083743519445 -4.520806825114093 -11.476431821904919 0 0 0
111 1 -6.983247246066472 -5.226325019244527 -9.136055202764535 0 0 0
155 1 -5.503653393765351 -6.666392600404668 -10.35251562573533 0 0 0
204 1 -4.633400823017167 -4.376328811006282 -10.450588971633838 0 0 0
194 1 -3.0968886740081825 -5.9382142515617655 -11.462894448854994 0 0 0
192 1 -0.9465199318206317 -5.862222643439134 -10.254158885037699 0 0 0
203 1 -2.213610444851449 -3.713509098507952 -11.781483507091467 0 0 0
202 1 -2.4691876929594123 -4.377797648157253 -9.372890614972121 0 0 0
65 1 -5.023759923584585 -0.5437675791577892 -2.3994707494571337 0 0 0
123 1 -10.68466677258432 -2.9739494982440497 -11.588880491747972 0 0 0
1020 1 -12.117655840874242 -1.3528034899122918 -10.551387331667502 1 0 0
73 1 -9.979127003652913 -1.2820272229927188 -9.499493449970414 0 0 0
5 1 -9.801433526644608 -0.6101440410164898 -11.759070403798464 0 0 0
122 1 -8.48726256594058 -2.9296384782292186 -10.462633297852566 0 0 0
4 1 -7.508436153734193 -0.5984285952526047 -10.565109067424611 0 0 0
12 1 -5.85107782464994 -2.145740361144904 -11.637324078484689 0 0 0
163 1 -3.656327827917142 -2.123868352206406 -10.605462743072863 0 0 0
10 1 -5.295093046693928 -0.5765701135968371 -9.469190948539687 0 0 0
164 1 -6.242587937949358 -2.8395277625762514 -9.360318759040112 0 0 0
22 1 -1.1958618640248275 -1.4542864886723823 -11.642950707078269 0 0 0
161 1 -1.574328707241241 -2.083541319552433 -9.3247389073261 0 0 0
139 1 -12.446595466039383 -12.81011157590295 -7.649714106009599 0 0 0
136 1 -10.07284592548847 -12.772801865110242 -6.606917785075261 0 0 0
91 1 -11.384793086534799 -10.697874105385974 -7.755211387444132 0 0 0
137 1 -7.539774609720944 -11.97471016383296 -7.752851548241799 0 0 0
87 1 -9.151447768428035 -10.596113978667 -6.538749770961342 0 0 0
135 1 -6.002749375988174 -13.532522026218286 -8.777218225124201 0 0 0
1236 1 -12.73401120444126 -13.72060098089713 -12.195666646609 1 0 1
184 1 -5.120516508859573 -11.238919935154527 -9.089059594918798 0 0 0
133 1 -5.375352821305743 -12.012405659465488 -6.526662558605082 0 0 0
966 1 -0.4651409535441946 -10.478778242007724 -8.97064600236564 0 0 0
26 1 -4.0409931983293035 -3.060393753470482 -15.111649519940475 0 0 0
564 1 -1.3467066715654372 -12.788843140591183 -8.78166277043712 0 1 0
171 1 -2.841711306140441 -11.216063289543278 -7.854447772249692 0 0 0
129 1 -0.7301124238513452 -11.235768137804584 -6.638543061535838 0 0 0
104 1 -12.706383223932761 -8.24404216966818 -9.021483367459378 0 0 0
103 1 -13.063923185454977 -9.04233857187344 -6.78501327140938 0 0 0
102 1 -10.592127658353343 -8.273531231860485 -7.876252510354107 0 0 0
146 1 -8.97375263548436 -9.925700180540293 -8.888412728343411 0 0 0
100 1 -8.307494217737498 -8.31197938886922 -6.876532866957888 0 0 0
144 1 -6.588391250388701 -9.651042146358574 -7.94275057322467 0 0 0
183 1 -4.144327996988972 -9.015507587548079 -9.153626266703984 0 0 0
182 1 -4.433482509646192 -9.736868434903549 -6.567978781405088 0 0 0
143 1 -5.784988492882637 -7.394542995286879 -7.81218217996248 0 0 0
141 1 -3.539774472625812 -7.462662595043832 -6.703978197890413 0 0 0
180 1 -1.865948261397234 -8.913506757596894 -7.764826308436705 0 0 0
114 1 -12.096218085982176 -6.718967020401798 -6.854485788286825 0 0 0
61 1 -11.121627018577005 -4.382978330038263 -6.795504171604026 0 0 0
113 1 -9.610488700564508 -6.029844289169273 -8.043494383712982 0 0 0
154 1 -7.318521819614724 -5.839439405752542 -6.847724253701831 0 0 0
59 1 -8.723144567515899 -3.7585161235425932 -8.219255506041328 0 0 0
193 1 -3.4085877480308415 -6.709464906177971 -9.163014568403515 0 0 0
109 1 -6.5096887476748355 -3.6351073654616073 -6.895466868940787 0 0 0
153 1 -4.86717408153285 -5.10724748552874 -8.121416374712137 0 0 0
961 1 -0.3006190419077619 -4.361583538652038 -8.219028647510855 0 0 0
191 1 -1.2067809457676102 -6.623943989369515 -7.88798724488616 0 0 0
151 1 -2.8041135220896685 -5.116986027863003 -6.984571744908104 0 0 0
124 1 -12.420561544780385 -2.0935568369608735 -8.165529166171773 0 0 0
72 1 -10.371800750722063 -2.0454000978140847 -7.059746129418153 0 0 0
121 1 -7.941129345883869 -1.3432731163701739 -8.099692002556987 0 0 0
162 1 -4.091893829747962 -2.9149650625808796 -8.323539340459497 0 0 0
119 1 -5.5426104291185725 -1.3367560716266826 -6.9467177752864195 0 0 0
8 1 -3.1914402780885283 -0.5730937565365473 -8.20727580593552 0 0 0
160 1 -1.9218217893383525 -2.900969725540291 -6.956102693511083 0 0 0
6 1 -0.9487596401066529 -0.6194597125192036 -7.124080331727246 0 0 0
79 1 -12.628998553669108 -13.628763128614658 -5.363278967479022 0 0 0
90 1 -11.648035632571872 -11.387492160232897 -5.353133405535271 0 0 0
78 1 -10.370406273431023 -13.43414805717962 -4.19772166010533 0 0 0
32 1 -12.009301829878593 -11.976883350203945 -3.0052700536720813 0 0 0
86 1 -9.454107052049 -11.218175778731936 -4.124819534820801 0 0 0
134 1 -7.899951667862191 -12.730827392068925 -5.461966896621686 0 0 0
85 1 -6.929203504877979 -10.412933185738643 -5.540309012498682 0 0 0
77 1 -7.228134709144671 -11.12829380133264 -2.954920510402115 0 0 0
692 1 -8.267187143257956 -13.455501191266613 -2.869787404901306 0 1 0
132 1 -5.774152111901361 -12.683623857375975 -4.1800684658114395 0 0 0
83 1 -4.785470979953656 -10.384104959493389 -4.249011788867847 0 0 0
81 1 -3.152865836490479 -11.974904606691474 -5.425895511054348 0 0 0
946 1 -0.8511364653931572 -11.955096777588631 -4.183433447347042 0 0 0
80 1 -2.6405710993387608 -10.402221372315916 -3.1141148975070863 0 0 0
101 1 -10.775490586415499 -8.956383704119304 -5.513825153058551 0 0 0
53 1 -12.367871939538057 -7.397098186607265 -4.5210766238054685 0 0 0
51 1 -10.233433608363205 -7.429679671165027 -3.3329709476864373 0 0 0
39 1 -10.947810547039667 -9.683889562644529 -3.1349966894162833 0 0 0
99 1 -8.475405107815098 -9.041048637355136 -4.372401609493382 0 0 0
142 1 -6.000862023683321 -8.025574773081438 -5.556508250976895 0 0 0
96 1 -3.929318425863938 -8.130157789864803 -4.348778050295953 0 0 0
84 1 -6.365322519106737 -8.914846400688791 -3.2206969966129186 0 0 0
172 1 -3.821725689779491 -13.515923340820232 -7.712762096106898 0 0 0
131 1 -2.2570645075177627 -9.681053167100004 -5.44866338471795 0 0 0
948 1 -1.4837586616183067 -7.421675486142207 -5.531420181602872 0 0 0
140 1 -1.741923882705711 -8.041225845317957 -3.2508804295723515 0 0 0
201 1 -0.029600687056632324 -3.666447265194334 -10.603899683399735 0 0 0
60 1 -11.40200846301763 -4.994326748475787 -4.586217302657982 0 0 0
112 1 -9.930114016322236 -6.686461833723158 -5.661088085695058 0 0 0
98 1 -7.793063078393754 -6.652929051643647 -4.524536522957165 0 0 0
110 1 -8.990449756506246 -4.464597993595673 -5.843231555498951 0 0 0
49 1 -9.204001329133472 -5.09135297597795 -3.391712676432027 0 0 0
108 1 -6.927221994980446 -4.325448855689091 -4.580614326148579 0 0 0
97 1 -5.536380907361284 -6.535684706903183 -3.3871343858888885 0 0 0
152 1 -5.161068441353329 -5.892902388452343 -5.7560730582465744 0 0 0
106 1 -4.548384857768454 -4.284591976500414 -3.4224875704958873 0 0 0
107 1 -4.239611797000856 -3.590925140872825 -5.934054972784871 0 0 0
150 1 -2.922754040247174 -5.840712386114627 -4.529744967194377 0 0 0
950 1 -0.5692960388004895 -5.1019041700914105 -5.801039194005929 0 0 0
94 1 -0.6025140540243843 -5.770816156447973 -3.3245291780015425 0 0 0
105 1 -2.0368813199866924 -3.554694085931393 -4.667188550665511 0 0 0
470 1 -11.783086010187894 -0.5532745964424546 -5.824933104371295 0 0 0
74 1 -12.7638169138469 -2.8243485862939472 -5.809427922217088 0 0 0
42 1 -12.109724793126063 -1.1999868046768256 -3.4651319070143156 0 0 0
58 1 -10.416903616301472 -2.691483495843155 -4.6359838356138034 0 0 0
70 1 -9.453147333765639 -0.4663424370880449 -4.671127188176714 0 0 0
120 1 -8.11297575502799 -2.1372572972870785 -5.793404024983124 0 0 0
57 1 -8.243504519552827 -2.7664061438039784 -3.4732476109299846 0 0 0
69 1 -7.394660736793138 -0.43083674155341534 -3.5348041556988825 0 0 0
118 1 -5.900711797246202 -2.0768471909663635 -4.665921519464074 0 0 0
116 1 -3.656807405798906 -2.0720107845965696 -3.590084940417185 0 0 0
117 1 -3.3979987279958443 -1.3049513716760472 -5.940787086939702 0 0 0
945 1 -1.158207308715646 -1.3473395043941832 -4.716010096774198 0 0 0
650 1 -12.28140884876886 -12.55275628524715 -0.6586186156199734 0 1 0
38 1 -11.310832978046788 -10.331383292625635 -0.8971858230889111 0 0 0
649 1 -9.648970877907795 -11.934028845376186 -1.8177838783253737 0 1 0
31 1 -7.598511840507101 -11.791358574940924 -0.5802462172298082 0 0 0
76 1 -3.539481847086776 -12.74448552991966 -3.0494574115612902 0 0 0
647 1 -6.032482611518374 -13.380790218350512 -1.7605960993971141 0 1 0
30 1 -5.059087543828907 -11.082955896540648 -1.849558393975343 0 0 0
646 1 -3.914676876358129 -13.247301200274624 -0.6988318393994941 0 1 0
75 1 -1.2589307763316686 -12.613141582049757 -1.8875712449870292 0 0 0
82 1 -2.905350675378754 -10.98857877374204 -0.7947143495232876 0 0 0
52 1 -12.450688263740803 -7.972857701478627 -2.1259300316007472 0 0 0
50 1 -10.23507493668439 -8.04383936084732 -0.8604013973759734 0 0 0
37 1 -8.938936328978402 -9.697191454092028 -1.9388624498159501 0 0 0
48 1 -7.909158066552728 -7.3208409982596585 -2.273671353381948 0 0 0
414 1 -6.647421967186758 -9.54160037888531 -0.7131756804186544 0 0 0
36 1 -4.202995171495065 -8.803748027109442 -2.0707274252082915 0 0 0
47 1 -5.857951577178326 -7.264213561782162 -0.9107304598899599 0 0 0
1029 1 -0.17528157004474743 -10.261421597495156 -1.9675372186305857 0 0 0
93 1 -2.0298738755024033 -8.791043966840062 -0.9669665018417959 0 0 0
43 1 -11.690967318383302 -5.80745060124813 -2.308436399738259 0 0 0
44 1 -10.752483075521098 -3.501677335512289 -2.2536782131145117 0 0 0
67 1 -9.505974943332012 -5.760736845047289 -1.0608389090679875 0 0 0
56 1 -7.041813535189472 -4.991112784542729 -2.255650656341855 0 0 0
442 1 -4.896590968702061 -4.947747700671078 -1.084346212002572 0 0 0
64 1 -3.9051970541512 -2.686942754047978 -1.2646868628911658 0 0 0
95 1 -3.479699407607889 -6.6671782693329265 -2.1359761686912595 0 0 0
1292 1 -0.1827772224898574 -4.29667525021323 -1.1406812534497401 0 0 0
54 1 -2.379317123270857 -4.349526824906464 -2.3009650980314014 0 0 0
943 1 -1.1506249457923605 -6.468054375823987 -0.930430746216814 0 0 0
270 1 -12.310774621524894 -1.9165575694410109 -1.1622649917027754 0 0 0
68 1 -8.61380257665638 -3.4688558552723876 -1.1152701956613047 0 0 0
45 1 -9.875679364161023 -1.1852114923003008 -2.384574556929625 0 0 0
20 1 -7.625622403585391 -1.0541068537350355 -1.1884453259746532 0 0 0
55 1 -6.195628652241027 -2.707844971068919 -2.3621278841196904 0 0 0
1289 1 -13.058655277206245 -9.138191726794622 -13.585773946063663 1 0 1
170 1 -1.5712779791164326 -13.580325325243535 -6.4873202428294725 0 0 0
607 1 -1.7192928765978195 -13.688136171033147 -13.259903041548778 0 1 0
1026 1 -0.6979242379817574 -0.29204421545285975 -0.003203260136452002 0 0 0
427 1 -11.638311239177522 -11.060348918951725 1.529263459264783 0 0 0
907 1 -12.293956538617152 -13.342273137285963 1.567383265691582 0 1 0
913 1 -10.016271385377621 -12.545099652534448 0.46308613111193786 0 1 0
429 1 -10.343244439032492 -13.353782689336619 2.8484775824431168 0 0 0
909 1 -7.8010244907596125 -12.5681208871523 1.6625606741532302 0 1 0
432 1 -9.393051311412776 -11.148950947504638 2.7692408851841392 0 0 0
437 1 -6.865364492481702 -10.206747600325258 1.671353897264055 0 0 0
431 1 -9.195501587923282 -10.349013261066336 0.5143019216731108 0 0 0
433 1 -5.572383962567549 -12.41946404201828 2.9001893059378254 0 0 0
413 1 -5.402631803894963 -11.747121997956828 0.5103715252735466 0 0 0
417 1 -3.086577438037157 -11.782796502131102 1.6702014920499941 0 0 0
420 1 -0.7041276845935371 -11.173948102939217 0.31113299050728216 0 0 0
421 1 -0.997140809718184 -11.714886759606111 2.7368276030332623 0 0 0
411 1 -1.6221613686861058 -13.351648911608356 0.4672662443272557 0 0 0
339 1 -10.65822421726563 -8.779205798686165 1.5976220863834278 0 0 0
275 1 -12.319260906404784 -7.163814913705958 2.7234228294137672 0 0 0
425 1 -12.934011432007157 -8.68251821631862 0.32839968289416177 0 0 0
312 1 -8.434475011690733 -8.705880549967016 2.801396910720598 0 0 0
430 1 -8.15743721584204 -8.010529229790464 0.36355444788063096 0 0 0
445 1 -4.634461177833119 -10.19075540129233 2.7301406339417085 0 0 0
436 1 -5.960322823287404 -7.888748552501727 1.4319399074703334 0 0 0
444 1 -3.7308880552510306 -7.962379692222002 2.62653328464058 0 0 0
443 1 -4.504418922435022 -9.469680626200017 0.34877143269994093 0 0 0
46 1 -3.5369485930316493 -7.118341598505919 0.2347922233771964 0 0 0
416 1 -2.1960891218425616 -9.318781178865944 1.4139663969546596 0 0 0
453 1 -1.2903875153223314 -7.079098497170132 1.2985298496857531 0 0 0
1240 1 -0.042410190738435105 -9.45529187072259 2.5612440354524466 0 0 0
274 1 -11.172209328331727 -4.890393119710442 2.3542856389353553 0 0 0
89 1 -11.961083407507855 -6.432622899076793 0.17561642723378235 0 0 0
340 1 -9.752234908411872 -6.428673964740171 1.235509634581497 0 0 0
580 1 -11.676305598066113 -0.06280701630378083 15.069176942560105 0 0 -1
314 1 -7.284350728565955 -5.624256502365556 0.07882170987710246 0 0 0
313 1 -7.522366528960835 -6.308241223203123 2.5864761209269638 0 0 0
297 1 -8.788585856469847 -4.17578502391124 1.2056306273951733 0 0 0
320 1 -6.65763235994546 -4.1200629292986495 2.4251881080046545 0 0 0
287 1 -5.201632718280774 -5.657275951142694 1.284924659986597 0 0 0
288 1 -4.150485428291029 -3.3865670815199476 1.1915023060240522 0 0 0
258 1 -2.8775770653774657 -5.587908983366093 2.406854918067051 0 0 0
452 1 -0.5192881273708476 -4.8449510807035185 1.275395007758096 0 0 0
29 1 -1.611703117801179 -2.2628443777284133 14.018012393583525 0 0 -1
1352 1 -0.0701417646893514 -4.259063640092313 5.969144642049891 0 0 0
349 1 -11.881375565296654 -0.3984252674247095 1.0999968211461244 0 0 0
360 1 -10.359309238802146 -2.6379322257943176 2.30233983957989 0 0 0
350 1 -12.552190243848083 -2.677182581330726 1.1613791491634444 0 0 0
296 1 -7.848834079931994 -1.8518825301120323 1.1253377450306594 0 0 0
358 1 -9.517017502697161 -0.30330611951436737 2.3127474645213795 0 0 0
319 1 -5.593429667309658 -1.8557684832225352 2.413488707253517 0 0 0
329 1 -3.3172022864903425 -1.1905050363835876 1.1793828040237955 0 0 0
259 1 -2.040914250376611 -3.3801285607910714 2.579389903394244 0 0 0
249 1 -1.171055416687274 -1.2339211235832739 2.2618444130112607 0 0 0
821 1 -7.29522190997526 -0.04256340863599739 10.510424453713405 0 0 0
337 1 -11.76895226337507 -11.79814217271551 3.9077967340579924 0 0 0
434 1 -9.707493794692493 -11.679031339263325 5.1359186245535895 0 0 0
438 1 -7.32249309891276 -11.038370870854331 3.882144660005096 0 0 0
439 1 -8.113460452459611 -13.348045552635746 4.013154085287759 0 0 0
447 1 -5.059268590178844 -10.774814557016132 5.022937198686989 0 0 0
912 1 -5.922041811795802 -13.053915333100322 5.223135606717491 0 1 0
418 1 -3.4596603723606982 -12.461659173946954 4.059420297316933 0 0 0
423 1 -1.1961738148734788 -12.355469842533171 5.11919575857576 0 0 0
289 1 -12.540060383554668 -7.907744313118385 5.042512804265176 0 0 0
338 1 -10.892012904780326 -9.43550190873854 3.980951447403097 0 0 0
299 1 -9.96028716471669 -7.131133875420482 3.8334006982465603 0 0 0
310 1 -8.802234140881751 -9.496455990143197 5.033815689669076 0 0 0
311 1 -7.786134456228922 -7.116181919172063 4.964562641851725 0 0 0
285 1 -6.2829010122918465 -8.656605316314014 3.8493959110785703 0 0 0
446 1 -4.1225373614002585 -8.590142194333485 5.010605883008246 0 0 0
284 1 -5.6578135228665065 -7.146377301795237 6.008886536244514 0 0 0
422 1 -0.2755279748203794 -10.166492953396169 5.023564140712544 0 0 0
455 1 -2.5158640203497438 -10.213438780369756 3.902351171167858 0 0 0
454 1 -1.6728816909444237 -7.953497375717673 3.7619093213226833 0 0 0
276 1 -11.659245539522606 -5.546864303249087 4.843289359828372 0 0 0
352 1 -12.79669517227076 -3.3379685251570255 3.5871657800455807 0 0 0
298 1 -9.134498891346706 -4.885773616674577 3.5314463777529888 0 0 0
322 1 -6.854485510311992 -4.879082782511002 4.827258461269789 0 0 0
286 1 -5.326296925598535 -6.387570055153881 3.6665137855077354 0 0 0
331 1 -4.431833412527514 -4.12854344400106 3.5571816486482817 0 0 0
342 1 -4.850619437119811 -4.8767481564935125 5.995763125698112 0 0 0
256 1 -3.1773217074183986 -6.332271529205949 4.8156214404434365 0 0 0
27 1 -6.190637850183802 -3.091607805929373 14.100815777360026 0 0 -1
257 1 -2.229399504856927 -4.016016263897557 4.922730867220832 0 0 0
1351 1 -0.6556918831017828 -5.653175716909372 3.7392099496977593 0 0 0
366 1 -10.57061035388836 -3.284235632986329 4.723121217624385 0 0 0
351 1 -11.863804450486432 -1.0615311619991648 3.4844247780640956 0 0 0
395 1 -12.211285558168822 -1.8111887903163808 5.827790583589007 0 0 0
362 1 -9.775479739092562 -0.9150533516397683 4.675198555833166 0 0 0
376 1 -8.407059731729493 -3.3017848792681637 5.852047982491733 0 0 0
374 1 -8.207419289891021 -2.5504580287237797 3.454503057717705 0 0 0
375 1 -7.629645465695971 -1.0431988171028959 5.93143134823768 0 0 0
769 1 -7.298462047866324 -0.3880984283131781 3.5291170267727203 0 0 0
321 1 -5.998672662391945 -2.5356772069948708 4.6343304760634645 0 0 0
330 1 -3.50413523064584 -1.774582995229002 3.463151093166715 0 0 0
383 1 -5.050511954752697 -0.2571791448228762 4.586412239620575 0 0 0
341 1 -3.792684332229083 -2.4915443964007924 5.865784598645899 0 0 0
248 1 -1.3119235422997164 -1.8619325911688538 4.749008543616203 0 0 0
260 1 -2.65686388997149 -4.833488101829294 0.07310133578944189 0 0 0
335 1 -12.120599018864278 -12.408374430864734 6.392926979848596 0 0 0
334 1 -11.533734162659911 -10.904603199943184 8.605598157547512 0 0 0
293 1 -12.55918400488022 -13.142401501147285 8.741007316963412 0 0 0
308 1 -9.9296446041273 -12.447486788744166 7.600380334048836 0 0 0
440 1 -7.431969183025099 -11.61655839717075 6.239197505990731 0 0 0
441 1 -7.727192267258952 -12.29476852952581 8.720635237869153 0 0 0
419 1 -3.7981008504327107 -13.13392092636292 6.371549009260047 0 0 0
448 1 -5.430412614855094 -11.553031527995195 7.379823659509057 0 0 0
457 1 -2.767290315895325 -11.03977778105244 6.23180765287416 0 0 0
458 1 -3.0384408400633376 -11.727781482079864 8.578211340659227 0 0 0
1298 1 -0.5649393876996864 -10.879934524787382 7.375219009368681 0 0 0
424 1 -1.5205411098159232 -13.353329183665247 7.3862928979348474 0 0 0
301 1 -10.355290037667846 -7.839605646495356 6.195469031555696 0 0 0
336 1 -11.157612383025985 -10.098456510204095 6.282570666899691 0 0 0
303 1 -10.553093557378574 -8.733871222678097 8.55646413067251 0 0 0
290 1 -12.690134935739765 -8.593843032610941 7.394054305681671 0 0 0
309 1 -8.9918650939181 -10.168722603725259 7.413259181116061 0 0 0
281 1 -6.8075692228140365 -10.015603500034938 8.57558788793542 0 0 0
324 1 -8.109320641715398 -7.845801867304912 7.300127475568495 0 0 0
283 1 -6.623238459377138 -9.360250300768818 6.33184296876669 0 0 0
254 1 -4.354563005888961 -9.306613516468406 7.339888234652509 0 0 0
282 1 -5.863628539398658 -7.802208197477944 8.442648185958568 0 0 0
255 1 -3.5671286127912154 -7.0445504914803605 7.267647808806025 0 0 0
456 1 -1.9510853362210927 -8.681067981685434 6.202486484570034 0 0 0
265 1 -2.2440882566393583 -9.400902096826849 8.444680973473414 0 0 0
1353 1 -1.3485719784933128 -7.196433983730809 8.439344026461757 0 0 0
368 1 -11.824293576669461 -6.253106798747525 7.220737856537028 0 0 0
394 1 -11.048303872640588 -3.9775652878866765 7.016964185812569 0 0 0
300 1 -9.461696209977159 -5.471270898935039 6.0031405891995 0 0 0
302 1 -9.55544716154707 -6.246912327655501 8.242338212411877 0 0 0
323 1 -7.155978584430532 -5.59049956568086 7.140477015446059 0 0 0
379 1 -8.930641545664809 -3.9990666623627913 8.136037857249782 0 0 0
344 1 -5.051151103074842 -5.48391679338107 8.320455655180883 0 0 0
264 1 -0.9550042566126606 -6.469419091203361 6.2055334737394645 0 0 0
1189 1 -0.34195168540525245 -4.989217353562147 8.265864378273807 0 0 0
246 1 -2.5636406291082423 -4.826582171975513 7.082936955978859 0 0 0
801 1 -11.652749042456005 -0.1386349087196379 8.126099158981681 0 0 0
391 1 -12.501531816619607 -2.451785609683604 8.154947218343242 0 0 0
399 1 -9.964630018563671 -1.7689688209978094 6.9878202225801545 0 0 0
786 1 -7.912819732246705 -1.755810348822921 8.274233156371412 0 0 0
343 1 -4.129712704603918 -3.2302470205276563 8.242415782756066 0 0 0
377 1 -6.267895159067735 -3.2184702893033332 7.006715336818754 0 0 0
385 1 -5.417135322975066 -0.9890784147947365 6.925878008723391 0 0 0
384 1 -3.305142852390553 -0.9793561149006216 8.130761568205664 0 0 0
247 1 -1.6884452460797519 -2.500041553401001 7.041435921534056 0 0 0
1856 1 -0.7685320744435487 -0.24263874003921693 7.036320256187636 0 0 0
306 1 -10.331406692679334 -13.10595480301336 9.78083733387875 0 0 0
316 1 -11.883893697056635 -11.615848657044292 10.930445216995007 0 0 0
882 1 -8.100251084832873 -13.239458235288973 11.003049969928767 0 1 0
307 1 -9.465753447001207 -10.85691094008304 9.735235636968774 0 0 0
279 1 -7.187944648666328 -10.905704265939391 10.86825135259485 0 0 0
305 1 -9.738875620548173 -11.587857254843144 12.10133927135923 0 0 0
450 1 -5.502026592891361 -12.331009434381743 9.741924978882984 0 0 0
460 1 -3.4000212537554138 -12.443896040202402 10.956575805860439 0 0 0
703 1 -4.907973810667867 -10.80806325393716 12.06652641701547 0 1 0
262 1 -0.9943030428530335 -11.718691233691768 9.662794497525937 0 0 0
1300 1 -1.2776249071509493 -12.3884589092612 12.255323189593799 0 0 0
304 1 -10.928250808907823 -9.303947245066539 10.814457701035948 0 0 0
370 1 -12.069893835481949 -6.974937886991359 9.603440908574772 0 0 0
371 1 -12.50110263440054 -7.749702089661003 11.861243014924991 0 0 0
369 1 -9.950791814462598 -6.954787582093529 10.69930919124727 0 0 0
326 1 -8.41659769510882 -8.495259350540326 9.562431917636513 0 0 0
328 1 -8.651557400140618 -9.185488348073036 11.801776981861263 0 0 0
378 1 -7.76602921473457 -6.897497831684333 11.893335871178024 0 0 0
252 1 -4.515449117749087 -10.049090879038706 9.820270440454753 0 0 0
280 1 -6.232608354203844 -8.558815171482712 10.848529154638829 0 0 0
253 1 -3.6952947159101406 -7.840392158031094 9.647258724607347 0 0 0
346 1 -4.005069274187305 -8.412218627127492 12.040549442582911 0 0 0
267 1 -2.358840598332682 -10.072946557948052 10.899296462033703 0 0 0
266 1 -1.5168725596442663 -7.772799425037104 10.913089644361733 0 0 0
268 1 -0.26588541478596284 -10.021318711065083 12.074197740486678 0 0 0
392 1 -11.283781190025973 -4.735229205401167 9.462089665931234 0 0 0
409 1 -11.65138432735554 -5.503351568937468 11.566709186218134 0 0 0
401 1 -7.4712882733031725 -6.272547279323143 9.559567446467813 0 0 0
397 1 -9.050946884589019 -4.663166057406828 10.529835660873694 0 0 0
405 1 -6.906026767852629 -4.55562642248789 11.719949112892806 0 0 0
367 1 -6.620103964503607 -3.951796138050229 9.447596014969847 0 0 0
325 1 -5.250029799372659 -6.324841561263926 10.818968744110151 0 0 0
387 1 -4.298355262375313 -3.9503510853842343 10.545343480598113 0 0 0
345 1 -2.947448859049018 -6.212974883290644 11.994998634894419 0 0 0
244 1 -2.8617525407479896 -5.54724834219944 9.511107382078979 0 0 0
245 1 -0.6399886982622274 -5.540007880323348 10.699500616158808 0 0 0
238 1 -2.124637328030751 -3.9742908713627862 11.669848617425782 0 0 0
811 1 -10.391476035006832 -2.292915916858755 9.314010719964593 0 0 0
400 1 -10.752881188401528 -3.1123643928932605 11.598812598954396 0 0 0
1394 1 -11.94183746326258 -0.8210432072070457 10.512824572681765 1 0 0
1393 1 -12.998706160001344 -3.202270433073636 10.546564488610237 1 0 0
839 1 -9.647477973183362 -0.5853466081020287 11.566662322442276 0 0 0
823 1 -8.329299539637905 -2.381585619832011 10.576881761762138 0 0 0
1299 1 -0.09228623439147299 -9.403221501025113 9.665507120366136 0 0 0
793 1 -5.083016673676374 -0.13331101577945859 11.699364657681052 0 0 0
402 1 -5.921558278827664 -2.4073064970146163 11.697574974481377 0 0 0
404 1 -5.623412844304676 -1.5654800532842117 9.304793598252065 0 0 0
386 1 -3.465016546916873 -1.6631447965997168 10.487460768299513 0 0 0
761 1 -1.1415692571769114 -0.9610367774165898 9.292018446348465 0 0 0
240 1 -1.8811441082019602 -3.3036065683963756 9.36221242914647 0 0 0
239 1 -1.3974474574975986 -1.6806811852346346 11.59972821009561 0 0 0
295 1 -11.986278175889893 -12.295598992035812 13.275681976166833 0 0 0