LAMMPS data file via write_data, version 29 Sep 2021, timestep = 0

1865 atoms
3 atom types

-13.779461412590024 13.779461412590024 xlo xhi
-14.248863705851909 14.248863705851909 ylo yhi
-13.927856460629984 13.927856460629984 zlo zhi

Masses

1 55.847
2 1.008
3 1.008

Atoms # atomic

17 1 -12.57599195591941 -13.160969286438014 -12.081567940779182 0 0 0
13 1 -10.412078111869373 -11.848376228670986 -12.816760685426546 0 0 0
55 1 -13.029754380590912 -11.233227511456594 -13.619080651291682 0 0 0
10 1 -7.749356012030638 -12.826455871553485 -12.02972047004605 0 0 0
633 1 -9.960005148902045 -13.891986429049915 -11.48714221087459 0 1 0
6 1 -5.2363080738868195 -13.440954815229313 -11.262763851948725 0 0 0
41 1 -5.844309032915174 -11.521992797405375 -12.714608009594556 0 0 0
200 1 -3.988738079561573 -2.3613245631485995 -1.235089510776458 0 0 0
33 1 -3.141572122064993 -12.174325945597975 -11.949780098444613 0 0 0
4 1 -1.6477843692196714 -13.745406994129372 -13.272228623144468 0 0 0
25 1 -0.624245979355786 -12.996041436838691 -11.223260646668638 0 0 0
71 1 -8.07462936288041 -0.0972999735746356 -0.8442346240969183 0 0 0
53 1 -12.04844308816647 -10.394027637745628 -11.528402119375508 0 0 0
48 1 -9.949386744469262 -9.163313517110309 -12.224896384644813 0 0 0
49 1 -8.330929764438734 -10.716564077807167 -13.373414272597143 0 0 0
40 1 -7.459525212508996 -9.951198681691384 -11.282176575356246 0 0 0
47 1 -9.409333859477222 -11.193304036492126 -10.947703699511166 0 0 0
32 1 -4.7667575507398965 -10.792974516262007 -10.7183425160062 0 0 0
34 1 -3.657502570096483 -10.263167597135666 -13.265632022040363 0 0 0
80 1 -5.237964351984212 -8.730550698130163 -12.042154409513216 0 0 0
26 1 -1.123843968481756 -11.033086192970025 -12.553503336121992 0 0 0
70 1 -2.6409664214463593 -9.567544499108422 -11.283803461277493 0 0 0
786 1 -0.09773299162922733 -0.9346669948282411 -11.988323026442837 0 0 1
54 1 -12.578405759749717 -8.553183503781717 -12.948745096479787 0 0 0
100 1 -11.455233584248436 -7.63698790228918 -11.004776973495744 0 0 0
102 1 -10.484691438720864 -7.241595634396128 -13.780822673259593 0 0 0
101 1 -12.113021651294689 -5.76541297667076 -12.549115515672492 0 0 0
88 1 -7.896088836628318 -7.980711478040828 -12.927554717655866 0 0 0
87 1 -9.454667992508906 -6.435039606343523 -11.643318390437168 0 0 0
79 1 -6.741458209770057 -7.056235921160692 -10.88411260868981 0 0 0
81 1 -5.760755403598347 -6.795354052160012 -13.373936267828373 0 0 0
125 1 -4.650045360128839 -6.0011412234310075 -11.52318066169698 0 0 0
72 1 -3.2556644791661835 -7.63878223181633 -12.534926524318559 0 0 0
62 1 -0.7129202613502592 -8.276055315879852 -11.908899584560782 0 0 0
118 1 -0.9736476832679077 -6.355072315077273 -13.424932575774777 0 0 0
116 1 -2.0710356522612194 -6.824200610945992 -10.603069249567417 0 0 0
141 1 -11.499446621353446 -2.879625055953058 -11.86461380504142 0 0 0
152 1 -13.607947414485514 -4.2381451863859585 -11.124744978121615 0 0 0
467 1 -12.573558020930948 -3.705278817544512 -13.80623460304163 0 0 1
144 1 -10.025651895792414 -4.382545669610215 -12.940345931683918 0 0 0
134 1 -7.299013635582446 -5.157820029631278 -12.2947401995917 0 0 0
133 1 -8.867263310886344 -3.667137501577143 -11.035172659888339 0 0 0
135 1 -7.792920307687432 -3.270799622161787 -13.648198941957046 0 0 0
126 1 -5.203514715017974 -4.12412509247485 -12.841219158523884 0 0 0
174 1 -4.157252251532741 -3.1657816645292165 -10.857171501782691 0 0 0
117 1 -2.710285041634899 -4.783072362818096 -12.141934684935874 0 0 0
176 1 -0.48990013347815164 -3.5328513388031677 -12.647555507778463 0 0 0
243 1 -3.17819334193379 -2.8248201334085543 -13.462952342989489 0 0 1
946 1 -0.29965629987891695 -2.6580726372416965 -3.16782126054434 0 0 0
196 1 -12.245198468557717 -1.0655932702010773 -13.157285105881178 0 0 0
191 1 -11.02345999400598 -0.16135467871568743 -11.230641357873274 0 0 0
192 1 -9.410395298906277 -1.7607911728279753 -12.251675299644084 0 0 0
184 1 -7.564675100273346 -0.6068285252066339 -12.96186051173639 0 0 0
183 1 -6.80927902083072 -2.3485178567036975 -11.539730423627592 0 0 0
175 1 -4.728600404723506 -1.4116064615448085 -12.257195763531318 0 0 0
166 1 -2.0511166275126556 -2.0837037767917117 -11.332162051022554 0 0 0
315 1 -8.085029231833625 -4.708519324101804 -0.05892368965057493 0 0 0
685 1 -2.6157613972121005 -0.17840995209913935 -12.937015372734086 0 0 0
15 1 -13.653218751988122 -13.45883767332761 -9.5326756601752 0 0 0
12 1 -11.543453527705179 -12.218228208400987 -10.190927223012494 0 0 0
11 1 -12.462932799004058 -12.727245973025187 -7.44954245950759 0 0 0
45 1 -10.486732142084632 -11.547897684382976 -8.112918300484555 0 0 0
9 1 -8.919289790338958 -13.064608612858084 -9.366579168135221 0 0 0
37 1 -7.772936699985146 -12.155473631279673 -7.321431774759291 0 0 0
39 1 -6.875697483394462 -12.034923501882119 -9.977681503581984 0 0 0
31 1 -4.190439871846699 -12.532740427019506 -9.146541334575012 0 0 0
5 1 -6.14469156770475 -13.798886779811209 -8.619969422291367 0 0 0
23 1 -1.599389319811241 -13.280277818762208 -8.368228906109682 0 0 0
22 1 -3.1206399162603393 -11.741873680022888 -7.112154993604545 0 0 0
52 1 -13.46258024525104 -8.854030194247493 -10.303851932289504 0 0 0
46 1 -11.018854055812001 -9.546665469161452 -9.556975570567879 0 0 0
51 1 -13.097287224125509 -10.910684260517534 -8.837869017868746 0 0 0
38 1 -8.440828799404123 -10.271500673485363 -8.781471474213493 0 0 0
84 1 -9.79918491154372 -8.773642456578905 -7.579819471159452 0 0 0
78 1 -6.190229926785515 -9.0670623445498 -9.376748423008658 0 0 0
30 1 -5.824370574230642 -10.992285974047592 -8.03679199075117 0 0 0
67 1 -3.6395332618491203 -9.930541496641663 -8.671211537485572 0 0 0
24 1 -2.1554227533618455 -11.45740743889548 -9.89646348401785 0 0 0
60 1 -0.9778228878446011 -10.617690310859794 -7.827672695157402 0 0 0
61 1 -1.5281784347466623 -8.750905179581132 -9.229226525423563 0 0 0
93 1 -12.868965378722734 -6.1825727580912755 -9.721033524112563 0 0 0
92 1 -12.452714891570608 -7.961371157425987 -8.264997329802574 0 0 0
85 1 -10.336582108631298 -6.854020405965274 -8.997322724816765 0 0 0
86 1 -8.804253047387206 -8.380080710045487 -10.26525487818623 0 0 0
77 1 -7.815680314681391 -7.603936800564596 -8.07141367991029 0 0 0
66 1 -5.24770904014899 -8.157790308391053 -7.322742019600465 0 0 0
68 1 -4.239088991822781 -7.987733339329961 -9.997547558955366 0 0 0
123 1 -5.810454558137147 -6.219393460932244 -8.833497014507877 0 0 0
114 1 -3.191859281390135 -7.067709716196455 -8.04410683452421 0 0 0
938 1 -0.5301965111439078 -7.801931952254992 -7.267854606996282 0 0 0
108 1 -1.1515391112517221 -5.866633156458427 -8.554397404251446 0 0 0
140 1 -10.884344209791564 -4.883056861383185 -10.44996799592022 0 0 0
139 1 -12.344850147348202 -3.397996817111828 -9.13270464512504 0 0 0
138 1 -11.819685337812393 -5.238241720863325 -7.788612611420104 0 0 0
132 1 -8.293998371780743 -5.652098556049223 -9.565644333491491 0 0 0
131 1 -9.837941480230555 -4.0593091659610785 -8.365525538954824 0 0 0
122 1 -7.281390075227664 -4.729267446781286 -7.555185904891511 0 0 0
181 1 -7.840222883591903 -2.8273534015403605 -8.987676740982884 0 0 0
124 1 -6.329458179763447 -4.341989428185659 -10.213112766080814 0 0 0
115 1 -3.6815130247074244 -5.182615751622432 -9.467339165138132 0 0 0
172 1 -5.137883865204143 -3.64474307016771 -8.140968597656377 0 0 0
165 1 -1.5611942035042823 -4.05991987386567 -10.097382446232322 0 0 0
163 1 -2.562720067904646 -4.288155971394911 -7.429677950167702 0 0 0
158 1 -0.368499523977766 -3.1930385577668794 -8.093918494334126 0 0 0
195 1 -13.012396226425626 -1.4613510268223528 -10.512914899214273 0 0 0
189 1 -11.912554036780456 -0.5833448786663276 -8.52967469849684 0 0 0
190 1 -10.255125322809777 -2.123801383245274 -9.789366985718068 0 0 0
182 1 -8.25238420410497 -0.9591181445464052 -10.250997010900072 0 0 0
180 1 -9.335426021722693 -1.3686252014369273 -7.707066669332926 0 0 0
221 1 -7.143351878108563 -0.11392250187258135 -8.27721962533058 0 0 0
173 1 -5.658091378407816 -1.6594112830986258 -9.591120684133436 0 0 0
217 1 -4.676187443577485 -0.8352376617069641 -7.497692404913802 0 0 0
218 1 -3.544712425138009 -0.5565925690740894 -10.206818175378011 0 0 0
204 1 -1.0355385566168938 -1.2094187134688639 -9.321714957422657 0 0 0
164 1 -3.192003272418315 -2.4801880968730483 -8.691494942045004 0 0 0
226 1 -13.515801548556006 -13.072433206945732 -4.726872618191402 0 0 0
43 1 -11.418837983413532 -11.900449901695342 -5.399116235584936 0 0 0
224 1 -10.851416825715667 -13.811139109471712 -3.935685939744843 0 0 0
1126 1 -12.98339577518195 -5.182401795373382 -0.08768521755479242 1 0 0
8 1 -9.869873665792248 -13.396059297835988 -6.633693939800551 0 0 0
231 1 -8.640277204888415 -12.60206950656565 -4.745010275163169 0 0 0
29 1 -5.18707911556246 -12.900660478782552 -6.5426349615778125 0 0 0
27 1 -6.198020559863229 -13.334557812440735 -3.8567393468871654 0 0 0
20 1 -4.154444035411013 -11.909424180825644 -4.3388572473221725 0 0 0
21 1 -2.5938486735048603 -13.63641743985473 -5.896913469673093 0 0 0
1107 1 -0.5197591060837166 -12.613268887671252 -6.372500049026866 0 0 0
223 1 -1.48263337785645 -12.904853502276108 -3.7004825135333768 0 0 0
44 1 -11.908517693975028 -9.964298938570845 -7.0380260686745295 0 0 0
234 1 -12.885026380456074 -10.265750377376431 -4.142514929689291 0 0 0
82 1 -10.803776120866395 -9.218011819790442 -4.777480629378397 0 0 0
36 1 -9.341437458311212 -10.63569559317201 -6.188722427824606 0 0 0
76 1 -7.252733477315487 -9.41778823053302 -6.800236080796093 0 0 0
74 1 -8.312408115877066 -9.84561753178441 -4.099351553034813 0 0 0
28 1 -6.55918833828804 -11.273266057851394 -5.233437764959943 0 0 0
65 1 -4.613225086340291 -10.208907270901918 -5.946830184569739 0 0 0
64 1 -6.154020457702312 -8.614839541734279 -4.631602623066266 0 0 0
57 1 -3.486623725872059 -9.365509813148194 -3.7145633815664727 0 0 0
59 1 -2.5343915929698984 -9.012087210427275 -6.514224777302566 0 0 0
58 1 -1.9592853809476551 -10.946707019233882 -5.1096429858484935 0 0 0
90 1 -13.443464668529565 -8.313989016011185 -5.554413550730951 0 0 0
83 1 -11.401830619379933 -7.2079466780566035 -6.2857302722598805 0 0 0
136 1 -12.894207632729925 -5.553587666497766 -4.983693955827736 0 0 0
209 1 -12.40677686932666 -7.468373823188267 -3.514439977795883 0 0 0
128 1 -10.352930059460917 -6.376716099308472 -4.285455591436531 0 0 0
130 1 -9.27146234440944 -6.084683766688654 -6.891316094020449 0 0 0
75 1 -8.740407485418492 -7.96765997273843 -5.3552631955999885 0 0 0
121 1 -6.716501615417026 -6.690368939806934 -6.036513583519303 0 0 0
112 1 -4.10337682242273 -7.4810695286206705 -5.153710625295263 0 0 0
111 1 -5.682519335945212 -5.781089675444845 -3.8816864685984545 0 0 0
113 1 -4.778075532024136 -5.41469451171662 -6.677969574938183 0 0 0
107 1 -1.8530310303826791 -6.185841118629293 -5.9460310030208054 0 0 0
106 1 -1.48880703290137 -8.050343850334507 -4.47763105288719 0 0 0
137 1 -13.354892195026723 -3.6680962768966303 -6.526946557417259 0 0 0
129 1 -10.67877760143752 -4.42374633394083 -5.638955101689984 0 0 0
186 1 -12.457351113498596 -2.8006798995662976 -4.384360974554417 0 0 0
179 1 -8.795041323293528 -3.254939055439859 -6.284895592407689 0 0 0
120 1 -8.183208135675567 -5.232157336566454 -4.95215358403914 0 0 0
170 1 -6.180831503881075 -3.827422214174268 -5.455124583431074 0 0 0
161 1 -3.537143358986082 -4.727558550227531 -4.7017740680732985 0 0 0
162 1 -4.01946935091425 -2.736204458742426 -6.011779183676252 0 0 0
156 1 -0.8472627145362335 -5.368447444552169 -3.856184696588347 0 0 0
157 1 -1.4745987269879315 -3.4443939915713795 -5.239041662924031 0 0 0
188 1 -11.376930040231098 -2.50805117895659 -7.102211175129803 0 0 0
187 1 -13.005570444185821 -0.8421828051249367 -5.954951976513205 0 0 0
178 1 -10.285138140877466 -1.7806403287834538 -5.058606933570516 0 0 0
201 1 -4.5214876518329294 -0.4511327219684347 -2.6956793165695814 0 0 0
220 1 -8.22390398372285 -0.4273133505077169 -5.619008125822225 0 0 0
169 1 -7.717519405307369 -2.448391649009926 -4.1350510569752945 0 0 0
171 1 -6.749699188868357 -2.0371753117162577 -6.9433504727081345 0 0 0
208 1 -5.6051100192695085 -1.2885299312898262 -4.913050830727354 0 0 0
663 1 -11.815820029274523 -14.204330830492616 -1.3434482023396495 0 1 0
203 1 -1.9685447296623693 -1.503812082146938 -6.713844040464541 0 0 0
202 1 -2.9821503310028117 -2.0058341865498317 -3.9509854803139763 0 0 0
199 1 -0.9756475474595021 -0.7744453681045105 -4.575920777031001 0 0 0
233 1 -12.250684409868787 -12.267792545611659 -2.688975197000934 0 0 0
232 1 -11.242492459252354 -11.45144773140598 -0.5534246122756468 0 0 0
3 1 -2.6389085672980315 -13.956083597483644 -10.469516473050604 0 0 0
229 1 -7.710426694936737 -11.890446729391957 -2.5163030089239253 0 0 0
230 1 -9.909390738320331 -12.902289986619431 -1.9116434887844331 0 0 0
228 1 -7.144102470448314 -13.733713540304334 -1.1702482928205207 0 0 0
227 1 -5.050293691709465 -12.493330137173695 -1.688415327847114 0 0 0
19 1 -3.523853310094651 -14.130437575694721 -3.0490414415470646 0 0 0
2 1 -2.365233490239575 -13.228529938585472 -0.9954108457680366 0 0 0
1062 1 -0.38576858518467816 -12.17708889999791 -1.7872678791845154 0 0 0
56 1 -3.0857301346360195 -11.330326763070648 -2.3258523973661074 0 0 0
206 1 -6.531309474360102 -1.6841456812253526 -2.1151380190266877 0 0 0
211 1 -11.852052280267555 -9.488903328709934 -2.092972111811388 0 0 0
210 1 -10.323618789826282 -11.081177888124543 -3.3571897151940213 0 0 0
213 1 -9.303454595077454 -10.16655168520541 -1.2480855545479272 0 0 0
214 1 -7.234243404683709 -8.996078573927385 -1.9495033724697404 0 0 0
63 1 -5.654531940469171 -10.50194991096923 -3.218021076535477 0 0 0
215 1 -6.677187247846003 -11.033667573065888 -0.46651752707702343 0 0 0
216 1 -4.482381916468331 -9.887722791903867 -1.15648575139641 0 0 0
1061 1 -0.9911182576416895 -10.089970606649672 -3.0509515006730528 0 0 0
254 1 -1.818662687695003 -10.576760742430594 -0.49071045359415244 0 0 0
104 1 -2.3112370189209184 -8.55145455955904 -1.7221055326936092 0 0 0
143 1 -13.268358321414567 -7.899599362212018 -0.7558967665364076 0 0 0
146 1 -11.32771083407921 -6.729852412545674 -1.495830974374524 0 0 0
119 1 -7.701173966229371 -7.11602769467444 -3.31942790021459 0 0 0
212 1 -9.857933730452082 -8.268221703211239 -2.6359669775412407 0 0 0
148 1 -8.634514389126764 -7.383563580352584 -0.6168840698230351 0 0 0
149 1 -6.611142752156842 -6.258697991853574 -1.3224505983889117 0 0 0
110 1 -4.995722444536062 -7.802195178285303 -2.5543876429341186 0 0 0
270 1 -3.9512691147926944 -7.021208559705861 -0.4242959183991477 0 0 0
105 1 -2.9747181390384476 -6.525870841560061 -3.13909004084379 0 0 0
1016 1 -0.24838743330126256 -7.419664435376572 -2.4964458111590684 0 0 0
150 1 -1.8214248076308444 -6.061813659235314 -1.159248137866971 0 0 0
677 1 -3.5227415237009527 -0.03056037021817737 -5.385257358874615 0 0 0
145 1 -11.874382884308801 -4.7833838024824455 -2.89900490262489 0 0 0
95 1 -13.390331958614174 -3.2692112318404067 -1.646292643819967 0 0 0
97 1 -10.811242946515128 -4.1325738878589995 -0.8470413082977313 0 0 0
177 1 -9.705455320979784 -3.694751711643761 -3.6219896489093113 0 0 0
147 1 -9.284852619765793 -5.540176929341113 -2.145840841220238 0 0 0
168 1 -7.070059143348655 -4.342561387096238 -2.7701253448571634 0 0 0
160 1 -5.041064435466044 -3.138913703233994 -3.4048912438834655 0 0 0
99 1 -6.091124116925423 -3.5004928165790314 -0.6619113138836656 0 0 0
159 1 -4.482845330617771 -5.026357863952146 -1.9178805281752123 0 0 0
155 1 -2.4640312329719567 -3.905168418924008 -2.623193714943108 0 0 0
197 1 -1.309563788678771 -3.1356784269533566 -0.5909984375058848 0 0 0
96 1 -11.281626074257867 -2.1323175051599055 -2.254967088885655 0 0 0
951 1 -12.95696390439424 -0.5521719641674192 -1.0618679201633245 1 0 0
358 1 -10.20879141380231 -1.3858231570245767 -0.17932473051183884 0 0 0
219 1 -9.137382041845804 -0.8819350182284378 -2.97753168895127 0 0 0
98 1 -8.73312509982681 -2.840549039038107 -1.4709678960273305 0 0 0
198 1 -1.8523539861572171 -1.1485869128009547 -1.8514524567164727 0 0 0
222 1 -11.837903733491995 -0.2901527190061053 -3.742370323192034 0 0 0
35 1 -7.222745370008337 -14.14920892084254 -6.066546646357955 0 0 0
631 1 -10.953107168518075 -14.130834139461797 -8.756228112277121 0 1 0
7 1 -4.3138466231895 -12.924875908310321 -13.927697355758239 0 0 0
324 1 -5.609421050717607 -0.8289607061381563 -0.11456054939777616 0 0 0
1329 1 -13.396834897965434 -12.621583483266132 -0.04905863128572996 1 0 0
392 1 -10.754712271241557 -13.553413981196606 0.6466267662263547 0 0 0
391 1 -12.200955906115786 -11.91141334278856 2.070148627937133 0 0 0
284 1 -1.819567147330801 -14.189928393261061 9.92484103445024 0 0 0
306 1 -9.728943545410168 -12.50600948254341 2.718520670710932 0 0 0
430 1 -9.124508897640485 -0.04117364038681792 6.603540897239862 0 0 0
347 1 -8.699300697832399 -12.230793750062729 0.0934996234175518 0 0 0
269 1 -5.948387849635998 -12.85449758260913 0.9881758630789808 0 0 0
311 1 -4.949934519596837 -11.969205511729939 3.0193593594985 0 0 0
1 1 -3.9492657295707456 -11.666455006406816 0.28230405158531724 0 0 0
273 1 -3.443923483537242 -13.593406184101433 1.6857503397020235 0 0 0
268 1 -1.3352776639240496 -12.39367785707129 1.0141653976293696 0 0 0
1276 1 -0.000303351745513325 -11.737607812437028 3.0074984054461016 0 0 0
397 1 -12.75963217791728 -9.791615449700892 0.5688475838450522 0 0 0
399 1 -11.741011275828836 -9.023467030684078 2.7270684136969745 0 0 0
881 1 -8.050384966379202 -14.078368385828721 1.5101730304359524 0 1 0
348 1 -10.15401007811813 -10.532642795998273 1.431507398188863 0 0 0
309 1 -7.529285531087644 -11.351191030950595 2.102006186849872 0 0 0
351 1 -8.053155501220491 -9.468813128607188 0.8302194583534757 0 0 0
310 1 -7.077583752068618 -8.616985009141693 2.921794225168197 0 0 0
352 1 -9.190140585839696 -9.743080084131059 3.4659391672426505 0 0 0
272 1 -5.510531730609564 -10.114308882910535 1.500454398868559 0 0 0
277 1 -3.3963053876326157 -9.059189214121037 0.9296516840864033 0 0 0
253 1 -0.672822932897807 -9.781450688119019 1.723363102881395 0 0 0
279 1 -2.9767023736507756 -10.894370731607822 2.2453288897930133 0 0 0
398 1 -12.217127816722234 -7.107280832094851 1.1891513928220494 0 0 0
410 1 -11.293333677615976 -6.296594515571321 3.3781642582804796 0 0 0
408 1 -10.090320884966529 -5.8883233406908335 0.6368933901003899 0 0 0
350 1 -9.645832682955174 -7.810050634349328 1.9518296164822253 0 0 0
361 1 -7.6125522713705225 -6.745959498772996 1.4388110710395612 0 0 0
316 1 -5.000690338374763 -7.4126432772385495 2.3310590630075065 0 0 0
373 1 -6.575406576805897 -5.848701670191009 3.46921823212657 0 0 0
308 1 -6.041064370860475 -8.184211048957433 0.12886074676385917 0 0 0
276 1 -2.848534425079306 -6.334195337356159 1.6125811415111286 0 0 0
278 1 -2.372759888425616 -8.263309977704568 2.8729997964048426 0 0 0
255 1 -1.2405996762347833 -7.9338600411025535 0.3261199734555209 0 0 0
287 1 -0.33085178128992787 -6.966942808611426 2.345217682459305 0 0 0
440 1 -11.70911439623269 -4.525361455818816 1.9476584525489091 0 0 0
359 1 -9.697186947613275 -3.254313238253806 1.2226383253619577 0 0 0
360 1 -9.192770032131804 -5.177767237920383 2.6765695857135423 0 0 0
371 1 -7.024330378960591 -3.9720711587374637 1.9919473440750544 0 0 0
449 1 -12.779500960742437 -0.16918329010936084 3.7324278214118767 0 0 0
325 1 -5.553827846396482 -5.485162339166418 0.7342891951507333 0 0 0
327 1 -4.487128877370948 -4.719533044487475 2.7975146364145136 0 0 0
248 1 -13.585709023253731 -4.557716584988709 11.92313729081228 0 0 0
286 1 -2.383638735865537 -3.514144412934712 2.234061881841731 0 0 0
154 1 -0.9084438348737454 -5.021959875267008 0.9581809883108434 0 0 0
450 1 -13.261058568449451 -2.877718231323726 3.17962529694986 0 0 0
407 1 -12.343084335792168 -2.5735219013589283 0.5163633124111069 0 0 0
420 1 -11.233531808386928 -1.7598399210207045 2.4964876297998178 0 0 0
868 1 -9.220734712312336 -0.5084857593114265 1.8488079158426451 0 0 0
370 1 -7.702992547830097 -2.027074759998243 0.532210188041649 0 0 0
372 1 -8.687424368830698 -2.412049337845543 3.1513561549315785 0 0 0
326 1 -4.942381936234636 -2.701770361422815 1.4560760670086008 0 0 0
382 1 -6.5294095754557135 -1.184756742258724 2.706022116891644 0 0 0
337 1 -3.844254472908128 -1.8586671697465782 3.4057500244763244 0 0 0
235 1 -3.8220524223721455 -0.9062150769859425 12.888021710804844 0 0 0
241 1 -8.541364386934148 -1.3954003406616806 12.882243894536353 0 0 0
297 1 -0.31244816974677114 -2.360164407475434 1.427495327566131 0 0 0
296 1 -2.9322348489490953 -1.4907367838240422 0.7059837526538626 0 0 0
298 1 -1.749935306929748 -0.7729599959418536 2.745144670179803 0 0 0
394 1 -11.637929395751563 -13.706326866887315 3.50304207858448 0 0 0
903 1 -12.781030599664504 -14.100543238168353 6.208652813351572 0 1 0
395 1 -13.265196902067455 -12.178265770178456 4.704902831455966 0 0 0
349 1 -10.595809261918557 -12.89066069136737 5.537406168775929 0 0 0
307 1 -6.96413414762143 -13.280721100343241 3.6614203111867614 0 0 0
353 1 -8.603800597889188 -11.665920516254847 4.82020648561288 0 0 0
355 1 -8.04949000751974 -13.61512794328954 6.283409112867231 0 0 0
904 1 -4.619084661982152 -13.97480584994731 4.2815482411426675 0 1 0
313 1 -5.984469860005635 -12.467752941818881 5.7255858085547136 0 0 0
275 1 -3.372967696213683 -13.22402713995325 6.340521265164449 0 0 0
266 1 -2.3615938420026286 -12.787234708773662 3.637389483791546 0 0 0
281 1 -1.2726108182556484 -11.98889654753766 5.798126839575795 0 0 0
402 1 -12.179646661557868 -11.335362561561226 6.726903047497855 0 0 0
401 1 -11.234975451956277 -10.9096917275292 4.089610588878342 0 0 0
1349 1 -12.584278629879517 -9.35825883868629 5.352562159228254 1 0 0
354 1 -10.061082230758174 -10.092965019968963 6.132519898546535 0 0 0
363 1 -8.030578642183482 -8.863533980302636 5.477191030413076 0 0 0
365 1 -7.606438800518628 -10.924355613426316 6.908753543794516 0 0 0
318 1 -4.3848027171859325 -9.313411543137931 3.637901105453876 0 0 0
274 1 -3.946354579964501 -11.315519476379514 5.031268177889219 0 0 0
312 1 -6.453495529520836 -10.563475134212842 4.25794355517713 0 0 0
319 1 -5.5053145678363755 -9.745544977622615 6.258329378427463 0 0 0
252 1 -1.7535778605880683 -10.13991497752324 4.329387632779673 0 0 0
291 1 -0.8318935716593057 -9.370521641943954 6.553976357852887 0 0 0
282 1 -2.997937890093848 -10.531542875230066 7.048437094453094 0 0 0
400 1 -13.368574998627237 -7.483860626366584 3.953231156658676 0 0 0
412 1 -10.700343050423214 -8.214837785334257 4.795182764342579 0 0 0
1188 1 -12.26090485818108 -6.641609960083731 6.046294662043154 1 0 0
362 1 -8.619225035795925 -7.04912439677609 4.080987064047735 0 0 0
424 1 -7.6236744619423735 -6.214725083527281 5.9802204329267195 0 0 0
413 1 -9.656385126595952 -7.369624253474165 6.8150594418964925 0 0 0
317 1 -5.936831130811903 -7.744660530090844 4.859595885941628 0 0 0
329 1 -3.8786525721250644 -6.624311921144787 4.2249648963313735 0 0 0
375 1 -4.847077402425226 -6.896004022599046 6.956433225526494 0 0 0
280 1 -3.3465865711206373 -8.531747482582537 5.692744444826451 0 0 0
289 1 -1.269709828598483 -7.420584778353002 4.977714828527818 0 0 0
330 1 -2.7826072359033276 -5.8028160515029 6.275444591450695 0 0 0
290 1 -0.1723951554694434 -6.573548127985374 6.872122840614521 0 0 0
1205 1 -12.859846416658423 -4.737499715073534 4.651062839442821 1 0 0
409 1 -10.678035651082265 -3.549165874061261 3.990381082563191 0 0 0
452 1 -11.593338331756026 -3.8103110884451006 6.630585589999347 0 0 0
411 1 -10.221782652722585 -5.571995910909001 5.3498354661856435 0 0 0
422 1 -8.109501309583948 -4.2404291527154125 4.621611203146935 0 0 0
374 1 -7.000235335320614 -3.421652118194043 6.76765449139439 0 0 0
328 1 -5.488011718519379 -5.09946747168051 5.515950008932231 0 0 0
384 1 -6.093540020226871 -3.0933373218904414 4.170546365450422 0 0 0
288 1 -1.8748207035427278 -5.536423638738615 3.7121596335591693 0 0 0
339 1 -3.3797983283596444 -3.8461511486822992 4.862740920295385 0 0 0
261 1 -0.755733664646371 -4.593682567504132 5.718900764382086 0 0 0
262 1 -2.2190010932079396 -3.03614863417838 6.950507464145661 0 0 0
451 1 -12.115832425475967 -1.8847590070590403 5.207661298303142 0 0 0
73 1 -1.6461831003549197 -9.219206127509963 13.769653114972696 0 0 -1
256 1 -0.10127759825554783 -1.3262268393569325 11.050626758336504 0 0 0
431 1 -9.559246491988707 -2.7596507790708635 5.959200440657673 0 0 0
421 1 -10.135382536542329 -0.8029083150996126 4.57695855890835 0 0 0
383 1 -7.505729382336214 -1.5307706020402883 5.250932990220749 0 0 0
247 1 -5.401392752565808 -0.30127115258563464 4.7347596275909805 0 0 0
385 1 -4.898755110440105 -2.3421357913652976 6.187225638137109 0 0 0
300 1 -1.3007102325457751 -2.7441772255714465 4.320398667608886 0 0 0
263 1 -2.7259084186412874 -0.9038483281937069 5.509966473940578 0 0 0
1180 1 -0.09666455984114286 -1.8612215979218227 6.30833885669974 0 0 0
403 1 -11.583307831244646 -13.183816993940036 8.238328328402003 0 0 0
1190 1 -13.16296508570831 -11.758729429052607 9.540656033025483 1 0 0
404 1 -10.549150689247991 -12.478410810978195 10.374915680791192 0 0 0
405 1 -9.069495093222553 -14.00040406288474 8.997727604091141 0 0 0
356 1 -9.55090547326505 -12.024529383849437 7.609927005625989 0 0 0
314 1 -6.871958501158086 -12.741763750141224 8.447072870429475 0 0 0
774 1 -4.372862168175546 -13.491677153747764 9.169518905641025 0 1 0
320 1 -5.002440213185173 -11.523103278419029 7.766968579187813 0 0 0
321 1 -5.91079714140395 -11.99464635054024 10.548245570082246 0 0 0
283 1 -0.5964447398452233 -13.941145245137944 7.120186296469663 0 0 0
322 1 -2.245157397476495 -12.39848363849871 8.446635127659766 0 0 0
445 1 -11.024940958717556 -10.71412298661407 8.950133086326181 0 0 0
1211 1 -12.64136801542316 -8.993447903038351 10.091003486831772 1 0 0
242 1 -1.089571735941858 -1.6191281487941929 13.78034608631751 0 0 0
416 1 -8.558472854542117 -11.196853048315525 9.673680321172183 0 0 0
414 1 -8.962802844575666 -9.283190026284863 8.219139072579852 0 0 0
377 1 -4.3452895896168044 -8.894054464646764 8.338939202779764 0 0 0
366 1 -6.437849595702211 -9.988646713269294 8.968292818293845 0 0 0
333 1 -3.843446978371654 -10.834279923271993 9.759030738654266 0 0 0
1247 1 -0.08010702492723354 -11.308250441604926 7.9197794499678675 0 0 0
292 1 -1.8026657684009777 -9.583832265522945 9.16430856358116 0 0 0
443 1 -11.638242913466215 -8.621812830481737 7.54095248001884 0 0 0
444 1 -13.086222213932134 -7.059810347715803 8.777344485555725 0 0 0
456 1 -10.648081989434262 -7.743917893384088 9.542215477909897 0 0 0
454 1 -11.104263987456328 -5.858693561351966 8.07868791569157 0 0 0
426 1 -7.931268915814995 -8.46478864625265 10.443582807137782 0 0 0
425 1 -8.455104271692662 -6.48747426726202 8.863644285513876 0 0 0
364 1 -6.943252951566487 -8.02489233201579 7.49884191620543 0 0 0
376 1 -5.942696776636227 -7.355043232358832 9.600913477872952 0 0 0
388 1 -3.733473050336702 -6.029421446215151 9.086569539449942 0 0 0
331 1 -2.307446836463031 -7.64258769778347 7.788564734437573 0 0 0
343 1 -1.3031271353396914 -6.830012951153044 9.728657922186644 0 0 0
332 1 -3.215332748635346 -8.027430433365003 10.420065826348383 0 0 0
1865 1 -0.8137127899190837 -0.4402568624235972 0.20228968775206013 0 0 0
453 1 -12.730556149603228 -4.2491462363374755 9.40878205556164 0 0 0
462 1 -10.533752495767004 -3.1461907768379334 8.697664915781447 0 0 0
423 1 -9.0296393041483 -4.702423203500983 7.4505203113871605 0 0 0
434 1 -10.010154869626085 -4.865639736696034 10.25850393783073 0 0 0
238 1 -7.909118306367331 -3.782769980225064 9.482245624371705 0 0 0
386 1 -4.309410711074985 -4.183963976806506 7.524425612016659 0 0 0
433 1 -6.424380311478836 -5.331103712378653 8.082640032345315 0 0 0
387 1 -5.336707673402858 -4.4757923271944 10.215508097033409 0 0 0
260 1 -3.1534758353124275 -3.3182769529249665 9.719290410468767 0 0 0
342 1 -1.6837754384247425 -4.953664918609805 8.300927329943127 0 0 0
259 1 -0.7064317235920399 -4.094066618508078 10.337393974671434 0 0 0
460 1 -11.230527937829546 -1.1483946163561836 7.348265939275931 0 0 0
465 1 -13.13940635264068 -2.374705186710001 7.949038036146016 0 0 0
466 1 -12.35539511962391 -1.479626321842499 10.088749335195713 0 0 0
461 1 -10.219246535325542 -0.40485041470964767 9.314022570808222 0 0 0
432 1 -8.458905869978793 -1.8883845924853873 7.993020159406962 0 0 0
797 1 -7.510492132567776 -1.0454779675115606 10.061617236418806 0 0 0
239 1 -6.428398831586585 -0.7283584282534097 7.470686874271772 0 0 0
246 1 -3.691627029558223 -1.5137192973156068 8.212187508868132 0 0 0
340 1 -5.832698984593798 -2.592736238924422 8.849949429357883 0 0 0
726 1 -6.523112781133936 -0.2871704819593166 12.244796843088354 0 0 0
847 1 -1.6991425717672648 -0.27613450515298155 7.601235199099291 0 0 0
796 1 -2.797303253863726 -0.543161045555486 10.401467068284452 0 0 0
1178 1 -1.2585359221667467 -2.2069887112189885 8.964312603042147 0 0 0
439 1 -12.631096833927279 -13.6212724354435 11.011455547670456 0 0 0
18 1 -11.424670401158942 -12.72147852247407 13.100244486311352 0 0 -1
864 1 -13.58890056658621 -13.864898652940788 13.624076895780673 0 1 0
367 1 -8.022442297769267 -13.061399713797348 11.054424183516828 0 0 0
417 1 -9.382191775005612 -11.562336405966787 12.3241240626699 0 0 0
418 1 -8.881962234378708 -13.522083993389725 13.726980904642248 0 0 0
428 1 -6.841163959105286 -12.382352027026657 13.211736104662533 0 0 0
14 1 -5.272261633689226 -13.817132508839569 11.88689736463043 0 0 -1
336 1 -4.580125239266415 -0.002054603032034308 2.0019588637495787 0 0 0
334 1 -1.1836764982883565 -11.591770993391023 10.550299150902044 0 0 0
323 1 -3.2868940840629985 -12.756845024064333 11.295870088563705 0 0 0
335 1 -2.250517135551977 -11.78369735168561 13.168561530333887 0 0 0
295 1 -0.6191881616850949 -13.424560884288992 12.01080983117547 0 0 0
447 1 -12.092881308218205 -10.796619787579065 11.609154982823958 0 0 0
458 1 -10.930308545643438 -9.997662679636655 13.625070933090845 0 0 0
1213 1 -13.703519518691042 -9.302871427906403 12.743044034532724 1 0 0
415 1 -10.05009794328166 -9.64811449707139 10.870140889628518 0 0 0