LAMMPS data file via write_data, version 2 Aug 2023, timestep = 0, units = metal

1859 atoms
3 atom types

-13.842727887292446 13.842727887292446 xlo xhi
-14.496895011001676 14.496895011001676 ylo yhi
-13.61386557291342 13.61386557291342 zlo zhi

Masses

1 55.847
2 1.008
3 1.008

Atoms # atomic

57 1 -11.392168091631367 -12.612789810948748 -11.161334644108882 0 0 0
312 1 -12.2056015033183 -12.02469590938372 -13.222282948761745 0 0 1
343 1 -13.162567169995857 -14.208727711358527 -12.759652410371466 0 0 1
231 1 -13.705931929864448 -12.56522984044291 -10.879911677396397 0 0 0
522 1 -10.673480193089958 -14.30739867641886 -13.087457570430646 0 1 0
58 1 -8.79052420377161 -12.725846083552955 -11.532434274375236 0 0 0
480 1 -1.8606705583218108 -14.345102152462053 -7.9426105471813555 0 1 0
148 1 -5.1573284405978885 -0.22210980363379207 -3.496604206981404 0 0 0
85 1 -6.3638681812956195 -12.846786662671299 -11.6976812253989 0 0 0
86 1 -3.944829928126362 -12.861487079397694 -12.346239978813678 0 0 0
101 1 -1.465384262208584 -12.864625857989854 -12.446254955383354 0 0 0
1050 1 -0.3591682132525058 -13.69159475407644 -10.326896163781498 0 0 0
22 1 -12.868128223004268 -10.355964410450063 -11.30436120081369 0 0 0
345 1 -7.186677908240132 -1.099447733366322 -13.49813390313558 0 0 1
23 1 -10.406694165900092 -10.410753341856566 -11.63358679764723 0 0 0
61 1 -7.886916727697466 -10.443468626993619 -11.957739419255795 0 0 0
62 1 -5.549488483907341 -10.438825665350155 -12.226190037734083 0 0 0
65 1 -6.115880489386986 -8.909776666110806 -10.333486596262567 0 0 0
89 1 -4.407150890508431 -11.347930222142724 -10.173081569636128 0 0 0
66 1 -3.6584577086742396 -8.972247230434387 -10.691131775586603 0 0 0
91 1 -3.0443017980879823 -10.587398063593675 -12.546557311061914 0 0 0
92 1 -0.5440380634174478 -10.742528305295638 -13.032467879198418 0 0 0
96 1 -1.187759032414375 -9.026725431336752 -11.131702919222182 0 0 0
90 1 -2.0062534229898574 -11.369502887911397 -10.588058461807627 0 0 0
124 1 -11.986091220621727 -8.12503383160768 -11.981674503005044 0 0 0
127 1 -11.202738203181866 -5.827771725295566 -12.210927229501959 0 0 0
26 1 -9.449631204313842 -8.026130372101028 -12.15846853540508 0 0 0
28 1 -7.045140028617584 -8.097794645063642 -12.29770507017406 0 0 0
31 1 -7.668552400434443 -6.457376687453937 -10.541784247710233 0 0 0
126 1 -10.070441678295133 -6.556534034458035 -10.310365185175847 0 0 0
67 1 -4.663794827544219 -8.18024060085612 -12.702846156631933 0 0 0
32 1 -5.168549568286421 -6.579917407381403 -10.821212743978176 0 0 0
33 1 -6.222460632273427 -5.865502657241773 -12.98319658906652 0 0 0
34 1 -3.7509314737690165 -6.029440264882686 -13.319107274046027 0 0 0
73 1 -2.7314280390041805 -6.684182881508775 -11.1666155143649 0 0 0
68 1 -2.1446366119349722 -8.348395363425979 -13.095324595528663 0 0 0
995 1 -0.31642869767693327 -6.816943837286278 -11.50115099460203 0 0 0
109 1 -13.740948312509015 -5.83406704574992 -11.981897293731755 0 0 0
111 1 -11.750287629892126 -4.258272705181897 -10.490087141194106 0 0 0
112 1 -12.840279776515375 -3.517206075822802 -12.57916662570749 0 0 0
128 1 -8.707200082582823 -5.724820849745132 -12.648008359851774 0 0 0
113 1 -10.33821047403321 -3.493380569351265 -12.849284875932424 0 0 0
133 1 -7.920937299894297 -3.4275104456499896 -13.11347440161677 0 0 0
131 1 -9.28247207482902 -4.25460966073828 -10.737092919787196 0 0 0
132 1 -6.823658682137023 -4.29360282101484 -11.043927110152918 0 0 0
39 1 -4.4487660425943965 -4.415714055943949 -11.24348552127943 0 0 0
134 1 -5.342228595790997 -3.5816909750757624 -13.365499405731294 0 0 0
40 1 -1.9750167510498198 -4.414977102728976 -11.616475751072592 0 0 0
105 1 -13.44057655610996 -1.9713893110105811 -10.825067174773473 0 0 0
116 1 -10.905393866975164 -1.9305546532396338 -10.994874789107193 0 0 0
106 1 -12.038442732367661 -1.2738739470675444 -13.06918151838772 0 0 0
117 1 -8.547040039335451 -1.9660835859606056 -11.095495237707345 0 0 0
118 1 -9.479099912979436 -1.1313757297914329 -13.268639410563546 0 0 0
486 1 -0.161761758965973 -14.268318177839715 -2.0352252961945787 0 1 0
139 1 -6.172781094872391 -1.994249979192551 -11.4153148696251 0 0 0
140 1 -3.74678959789361 -2.0490730884660824 -11.740448925785286 0 0 0
48 1 -1.1925540697646184 -1.999253422150728 -12.092805926813153 0 0 0
55 1 -12.666486943041395 -13.379132704492081 -8.86158938263804 0 0 0
198 1 -10.774817254504708 -11.918918209221335 -7.191490250272404 0 0 0
230 1 -13.168724652467551 -11.740649341202431 -6.896736190847087 0 0 0
56 1 -10.1968162115668 -13.43966603717166 -9.185076565015313 0 0 0
197 1 -8.39860194938137 -11.973544530868137 -7.560253291787377 0 0 0
83 1 -7.7211433840034935 -13.43678384578997 -9.54960768512085 0 0 0
199 1 -9.090110147001361 -14.226464393108618 -7.171775481969136 0 0 0
87 1 -6.001256807933149 -11.943000621620484 -7.8405679501974115 0 0 0
84 1 -5.087974527632461 -13.511769496877424 -9.773707787638434 0 0 0
470 1 -6.716474181253268 -14.211600540890064 -7.428515734491948 0 1 0
381 1 -8.318209167899063 -14.199027879632368 -13.310722560722825 0 0 1
100 1 -2.7621165618649375 -13.666751356093954 -10.025895707255655 0 0 0
103 1 -1.0254117155300602 -12.051143372118105 -8.471037199694397 0 0 0
88 1 -3.4980326493646583 -12.021263863757458 -8.101310375287287 0 0 0
228 1 -11.854847682208973 -11.080814208688096 -9.20293766539816 0 0 0
224 1 -12.351943939680039 -9.495150087128238 -7.315433518418747 0 0 0
24 1 -11.030155628269558 -8.880185153336488 -9.880566609388524 0 0 0
27 1 -13.350238181508029 -8.793185167388621 -9.477198658787577 0 0 0
59 1 -9.390494694600092 -11.04931735364099 -9.684309661226118 0 0 0
223 1 -9.91556965099944 -9.575156384704762 -7.678735904669736 0 0 0
63 1 -7.495953300237643 -9.60866265561085 -8.128038109228584 0 0 0
25 1 -8.678811650408413 -8.833173571809859 -9.995114628634546 0 0 0
60 1 -6.920060646975998 -11.25199611194042 -9.979882312846964 0 0 0
64 1 -5.052979798546755 -9.67648383938781 -8.249584973284176 0 0 0
95 1 -2.5093940668775296 -9.798726231955722 -8.742593107780483 0 0 0
233 1 -12.38495372880632 -0.11552116027341164 -2.7250511016768133 0 0 0
125 1 -12.6734539478901 -6.512105175557894 -9.893816662743056 0 0 0
19 1 -11.54415417301947 -7.230134271202748 -8.088412040757262 0 0 0
185 1 -6.313491214075033 -7.848226683315366 -0.08878316379290041 0 0 0
29 1 -9.143106191353382 -7.2954765033257525 -8.312980748056061 0 0 0
30 1 -6.5815290122805425 -7.318500578925935 -8.563427919493313 0 0 0
71 1 -4.173577124331581 -7.368827398429485 -8.771925806516869 0 0 0
72 1 -1.8121139949896854 -7.567476425502473 -9.25727846627442 0 0 0
98 1 -0.5527545074250124 -8.134001763999695 -7.141544308366595 0 0 0
175 1 -13.170768350234171 -4.8978645592995385 -8.072946579794358 0 0 0
129 1 -10.758764930194975 -4.971075115594102 -8.305373948630695 0 0 0
130 1 -8.316354636794305 -4.984972093656122 -8.659287154179827 0 0 0
37 1 -5.799530420629578 -5.0199618404181106 -8.911493476481859 0 0 0
45 1 -3.897710300545018 -3.252125932242219 -7.322880907520502 0 0 0
136 1 -6.317349999009814 -3.399359914030738 -6.988775812094187 0 0 0
36 1 -4.740348575385752 -5.648274386708932 -6.835908620021827 0 0 0
77 1 -2.3044806657127417 -5.756007558098531 -7.221075520425696 0 0 0
38 1 -3.4077625495393455 -5.191240400606514 -9.23175898733436 0 0 0
78 1 -0.9127233353758459 -5.164190765892867 -9.658746512984923 0 0 0
46 1 -1.4220149630473724 -3.4935142753392636 -7.7664207546043125 0 0 0
114 1 -12.35062055345714 -2.671152704874954 -8.594287827915615 0 0 0
108 1 -11.53570545785718 -0.48047136523393874 -8.988021036147785 0 0 0
120 1 -10.47599388450521 -1.09192220625782 -6.837883722005929 0 0 0
232 1 -12.919473303945994 -0.9024742511920323 -6.717152697316731 0 0 0
115 1 -9.876966718712866 -2.651363344632676 -8.681931355520653 0 0 0
137 1 -7.353376341800355 -2.6119848477810717 -9.106380453853777 0 0 0
121 1 -8.094658375889772 -0.9487043755442475 -7.050614216224811 0 0 0
122 1 -9.169210609223732 -0.41172753235782267 -9.11235581470974 0 0 0
146 1 -4.2123826702232865 -0.311577322362675 -9.856082815693943 0 0 0
138 1 -4.974088528561818 -2.5680653900455592 -9.448645898836169 0 0 0
144 1 -5.658293304922353 -0.9324807649368463 -7.481511784450613 0 0 0
123 1 -6.727358658391804 -0.23224562768398727 -9.514467003662403 0 0 0
147 1 -1.8636650049925194 -0.448966621935071 -10.233889493903117 0 0 0
145 1 -3.2541599592329007 -1.0353925846859973 -7.731778981145264 0 0 0
47 1 -2.6434920545548177 -2.7938238155190405 -9.797809628257943 0 0 0
52 1 -0.9414042634672555 -1.1001488574652303 -8.120947252138839 0 0 0
341 1 -9.830453890975052 -12.005290676463737 -13.503240266124758 0 0 1
519 1 -11.601999939719978 -14.177453671019272 -6.769544639054145 0 1 0
200 1 -12.038557740872834 -12.575496191322184 -4.807971513366827 0 0 0
3 1 -5.859769063684607 -2.5957366430556075 -3.1391064697122957 0 0 0
194 1 -9.670676012415878 -12.635364197015155 -5.116090838725521 0 0 0
177 1 -7.178986200292895 -12.646745039920452 -5.487865810298414 0 0 0
176 1 -4.8406237617937045 -12.740790684552088 -5.9114051466904325 0 0 0
173 1 -3.756378209320804 -13.70534773966292 -3.805277175148463 0 0 0
102 1 -2.3510409910681567 -12.750156904720367 -6.092006497954655 0 0 0
152 1 -1.3359785871304979 -13.519550243826053 -4.131330071922214 0 0 0
225 1 -11.174092654441438 -10.229728674801741 -5.332134578833315 0 0 0
226 1 -13.69506483216552 -10.257267507714207 -5.001144113074618 0 0 0
192 1 -8.668990679759151 -10.395518083505198 -5.726380772387499 0 0 0
193 1 -7.605045338588843 -11.058776342662599 -3.575806840129296 0 0 0
219 1 -9.39170452437257 -8.609814187399477 -3.8096597703556867 0 0 0
191 1 -6.356145752394618 -10.341248411323509 -5.893929065498033 0 0 0
93 1 -3.898593298650365 -10.437515663182369 -6.237490079130573 0 0 0
172 1 -5.264446989273177 -11.072454319788317 -3.9381951398466963 0 0 0
186 1 -4.396295506217241 -8.824169453506741 -4.4062063780715945 0 0 0
171 1 -2.922130793899383 -11.325017259257276 -4.124382685058077 0 0 0
94 1 -1.3852846616448673 -10.498559055625881 -6.580777992344045 0 0 0
104 1 -0.4948718350490964 -11.226062121953776 -4.598134513762538 0 0 0
97 1 -1.9386481453642723 -8.844040367854898 -4.687786399552939 0 0 0
220 1 -11.762618457159325 -8.613187802887428 -3.4450947901032194 0 0 0
16 1 -13.4901632297655 -6.360494057105049 -3.5994185939574166 0 0 0
21 1 -12.862901066918216 -7.980405008607944 -5.427919486911719 0 0 0
15 1 -10.959896654567855 -6.3703540272130486 -3.847069088301284 0 0 0
218 1 -10.479825878893267 -7.9779416390414815 -5.9119575278399425 0 0 0
187 1 -6.774505996442609 -8.785188046445878 -4.146366298408871 0 0 0
212 1 -8.576452523320302 -6.400703334030231 -4.252756869699089 0 0 0
217 1 -8.100200407136592 -8.075597108067761 -6.22579844122178 0 0 0
69 1 -5.581710976387235 -8.018137277874612 -6.580853156888525 0 0 0
75 1 -3.6857605177596415 -6.297029014136941 -4.907367807410582 0 0 0
211 1 -6.162263351266015 -6.395817365456329 -4.402354289212136 0 0 0
70 1 -2.984939391966787 -8.1119795904147 -6.71681804680346 0 0 0
76 1 -1.24462361006184 -6.573783190771093 -5.2986752126356045 0 0 0
169 1 -13.641923600921285 -3.1918316412324295 -6.153073366658947 0 0 0
14 1 -12.215100486636732 -5.639611712102614 -5.951355396463323 0 0 0
168 1 -11.171419793841181 -3.350227585299356 -6.467400619099553 0 0 0
170 1 -12.57802075671054 -4.053369000876279 -4.146891178759228 0 0 0
135 1 -8.802769858957026 -3.365222916658027 -6.719685362178037 0 0 0
8 1 -10.109330462411855 -3.9044686056339764 -4.334198005263502 0 0 0
13 1 -9.854007030843901 -5.691474633498149 -6.302913145999953 0 0 0
35 1 -7.251885563683594 -5.804016027811972 -6.641309284952285 0 0 0
7 1 -7.821035624617774 -4.151710513353251 -4.779472914199648 0 0 0
43 1 -5.270428444094781 -4.090094705358657 -4.970877644317673 0 0 0
44 1 -2.781311850464501 -4.13666337842862 -5.272304571494283 0 0 0
80 1 -0.30789020668392375 -4.14199706134748 -5.498724281884675 0 0 0
163 1 -11.924544449026737 -1.8314501320350924 -4.720394837510028 0 0 0
162 1 -9.477583534260617 -1.5956218410747454 -4.841124271491966 0 0 0
142 1 -7.07765848117711 -1.7444913776284778 -4.992399745652113 0 0 0
143 1 -4.531067374431812 -1.7618966401846272 -5.358168188888307 0 0 0
1 1 -4.18556638721954 -0.8583224881825391 -1.37230692764712 0 0 0
149 1 -2.6792900751441557 -0.1605938591157532 -3.7361627905252544 0 0 0
49 1 -3.4355112904736345 -2.503413864430092 -3.363831870237455 0 0 0
51 1 -2.032827487834755 -1.8673051802622478 -5.764779826908682 0 0 0
50 1 -1.0097206337730391 -2.572045909596069 -3.707694181994732 0 0 0
678 1 -0.30281649204344063 -0.1314740141409576 -3.9920867349202958 0 0 0
196 1 -12.437102669575982 -13.889148157057889 -0.3237060884511216 0 0 0
202 1 -13.407354222529495 -13.136552561874772 -2.4037896008363866 0 0 0
201 1 -10.830210609149592 -13.263216213033985 -2.800972637448252 0 0 0
216 1 -11.576989982575517 -11.708868067170192 -0.9870640235092925 0 0 0
179 1 -8.50309423141551 -13.334706395920705 -3.2151251058625867 0 0 0
464 1 -9.966287349360606 -14.074237667412788 -0.559396949146084 0 1 0
465 1 -7.585268365045449 -14.038503377395395 -1.0156512976076364 0 1 0
221 1 -9.05332110026919 -11.684122704251964 -1.1814170592866642 0 0 0
178 1 -6.105897648001677 -13.355897101436074 -3.2750147927060063 0 0 0
472 1 -5.181859558186854 -14.307080325161468 -1.259130711286577 0 1 0
174 1 -6.528717200086761 -11.814601489887538 -1.4321402204424931 0 0 0
167 1 -4.225302865679762 -11.94148117155063 -1.8094481230679715 0 0 0
473 1 -2.602784344101078 -14.251713756910448 -1.739029383050248 0 1 0
150 1 -1.8300691728904752 -12.040825841375158 -2.179782226128994 0 0 0
987 1 -0.11873886971067904 -2.8428077532944283 -10.04028144400108 0 0 0
281 1 -0.8329489372226409 -12.677831344918495 -0.09838570330307128 0 0 0
227 1 -12.689311614235026 -10.881243181775604 -2.8764891239219814 0 0 0
17 1 -13.267243724392245 -9.298263162290741 -1.0706619097178987 0 0 0
11 1 -10.755797814086574 -9.320607612489024 -1.2627432479270606 0 0 0
189 1 -10.051731428371038 -10.887341216287009 -3.1685644889889524 0 0 0
215 1 -8.250858036183423 -9.373101866935535 -1.6178044787950618 0 0 0
188 1 -5.755825990706597 -9.581319919249903 -1.9505844676712893 0 0 0
156 1 -3.4145206751445407 -9.619000408121682 -2.436833554758172 0 0 0
157 1 -2.303396456093047 -10.363086198626618 -0.3695186004531461 0 0 0
155 1 -0.9193024771457825 -9.569594818589959 -2.6377428296834964 0 0 0
956 1 -12.415513206526926 -7.134506158241796 -1.4977001206565763 1 0 0
214 1 -9.929220544963847 -7.091211216750895 -1.7549937049154387 0 0 0
213 1 -7.507986762524476 -7.082037756977027 -2.1489813440963434 0 0 0
184 1 -3.9241806645148056 -7.981683617190323 -0.3225805521046219 0 0 0
183 1 -5.084640661956335 -7.215888845975475 -2.4497763962680317 0 0 0
53 1 -1.6678579797533306 -0.8523695750955085 -1.6247223154765216 0 0 0
182 1 -2.6810196205096215 -7.287843970123099 -2.736505903610995 0 0 0
154 1 -1.450685092651133 -8.03423594674652 -0.7760987847453151 0 0 0
2 1 -6.631605943538478 -0.9272351143845459 -1.2347991038998885 0 0 0
10 1 -11.652796812157531 -4.694381551206577 -2.0232513951032516 0 0 0
166 1 -12.346170236950455 -2.9872732085352514 -0.10024790305347686 0 0 0
210 1 -8.169491733743708 -5.445144516117287 -0.26067873604874414 0 0 0
9 1 -9.188225321627897 -4.781014031595262 -2.3335711603811298 0 0 0
269 1 -9.945139751464868 -3.288865085946986 -0.39060388188289963 0 0 0
240 1 -7.381790760681382 -3.288494998177823 -0.7034448662454817 0 0 0
209 1 -5.610898403415117 -5.463562639057654 -0.567792708197068 0 0 0
208 1 -6.775663687190033 -4.760800120650801 -2.5605256941299164 0 0 0
207 1 -4.222376016612355 -4.835309104304535 -2.9223327725698525 0 0 0
206 1 -4.877180114277122 -3.199473265843416 -1.1229070166729933 0 0 0
180 1 -0.6748887103096521 -5.71649470521527 -1.0630394844543964 0 0 0
205 1 -2.467049348334818 -3.179865963386657 -1.1862563433730973 0 0 0
181 1 -3.0817563553013336 -5.673639299614278 -0.8935410612056849 0 0 0
79 1 -1.7986821755866238 -4.96439381650751 -3.1167028494750646 0 0 0
99 1 -0.04648165104973323 -7.21454784014352 -3.200055219724838 0 0 0
161 1 -11.391244473054204 -0.7680841450342761 -0.6437032941620711 0 0 0
164 1 -10.8031691801129 -2.338615073933221 -2.491083157212625 0 0 0
165 1 -13.348433070323516 -2.5194752784906562 -2.222542738902856 0 0 0
4 1 -8.464061573663002 -2.4603833374301534 -2.765929917678113 0 0 0
160 1 -8.951474827382242 -0.942921338356772 -0.8191912022436458 0 0 0
471 1 -4.242993910282594 -14.296851483941788 -7.581078096962536 0 1 0
1018 1 -0.09249214868260935 -9.839096766303717 -9.004979021232273 0 0 0
158 1 -7.524413581562357 -0.03661703295067831 -3.1171374847499145 0 0 0
1859 1 -0.04927054346046944 -3.35479760089636 -1.472335487539052 0 0 0
311 1 -13.809745024577289 -9.531135404797183 -13.333363414816377 0 0 1
159 1 -9.946344021252582 -0.01850651806513781 -3.036506385854926 0 0 0
245 1 -12.94965046917583 -12.426341506624631 1.6296825562069 0 0 0
255 1 -10.506892432275404 -12.44629957357992 1.1431034749198155 0 0 0
195 1 -7.9149890545303485 -12.44991252117017 0.901007764402074 0 0 0
235 1 -7.1516913942324924 -13.270864050012927 3.0100576940441695 0 0 0
234 1 -9.469680156821948 -13.081394984516052 3.330595239274041 0 0 0
279 1 -5.5741882430589325 -12.588412765062493 0.7310477249106881 0 0 0
280 1 -4.571094916694111 -13.365827707916045 2.799647147710145 0 0 0
151 1 -3.2014011300078824 -12.51937079193975 0.24075570112013978 0 0 0
288 1 -2.216530214919043 -13.292118826183621 2.2873084298211435 0 0 0
266 1 -12.131821199160076 -10.150718959910431 0.9960047783373263 0 0 0
258 1 -10.953689488668005 -10.831137027011776 3.1025420524203238 0 0 0
247 1 -9.588992230817848 -10.229063118898 0.7339583770257114 0 0 0
236 1 -8.589114430876798 -10.77822095203093 2.8418934924988672 0 0 0
190 1 -7.1973604945048475 -10.175945662384276 0.47750664889280436 0 0 0
439 1 -6.233323969160157 -10.928595450333187 2.4899703975640666 0 0 0
278 1 -3.757861359663286 -11.159002369451652 2.1879638787235525 0 0 0
921 1 -0.892680491436753 -0.6920738211584663 10.685343096973197 0 0 0
290 1 -1.2893973936787955 -11.066168556786486 1.7545764220244777 0 0 0
282 1 -0.46819680002179 -8.710666815960849 1.3010125768837604 0 0 0
276 1 -2.810494453561203 -8.783170092130568 1.6520929518342395 0 0 0
259 1 -12.728958870362092 -8.534959409502452 3.0170130137819218 0 0 0
268 1 -11.893427661156867 -6.088525445812097 2.3476591563224964 0 0 0
267 1 -11.372839607913114 -7.790329640233725 0.5965917389965707 0 0 0
277 1 -4.630381396126529 -10.279121479677418 0.012880926756219324 0 0 0
260 1 -10.254730935481035 -8.611666347577913 2.5477711751690837 0 0 0
248 1 -7.633662249824272 -8.54495114500845 2.3269661257122785 0 0 0
249 1 -9.397483769855612 -6.281879695142793 2.066393813891695 0 0 0
256 1 -8.737770510972513 -7.931042122449566 0.3509626298459203 0 0 0
238 1 -7.023459904522779 -6.198619209634831 1.8987277422216309 0 0 0
237 1 -5.314012030922578 -8.742940103373726 2.043739578611513 0 0 0
239 1 -4.425716341347293 -6.277559046013545 1.4259060151996668 0 0 0
275 1 -2.0140130271964907 -6.379495400159591 1.2213159801216644 0 0 0
291 1 -0.8788006444336371 -7.172873296417128 3.245729708189595 0 0 0
12 1 -13.01319914177224 -5.389339227068346 0.2692729855479463 0 0 0
263 1 -11.153400266678107 -3.873526175501709 1.8813787272122173 0 0 0
272 1 -13.703966070752926 -3.767261575364662 2.1180285048417034 0 0 0
348 1 -11.440859205008838 -9.697681939492645 13.530145924176546 0 0 0
251 1 -8.643685660094892 -3.862898822476186 1.696386020815165 0 0 0
252 1 -6.165129581727103 -3.918965643993424 1.286305446619231 0 0 0
241 1 -3.7495633236406736 -3.7178786731131037 1.0506457925382584 0 0 0
394 1 -5.114772222794599 -4.711734105293017 3.34793596988135 0 0 0
434 1 -0.14129608873057364 -4.904714920769649 2.6782962579383796 0 0 0
433 1 -1.2687406270322867 -3.9653591787205293 0.8291375199817601 0 0 0
393 1 -2.709718216164175 -4.823397555389608 3.146019326055667 0 0 0
926 1 -12.726921560025753 -1.6241932326987794 1.7950687335886162 0 0 0
265 1 -10.285508608309211 -1.4653475575969939 1.5402980204583727 0 0 0
5 1 -7.915622797774644 -1.6337207467032542 1.2562791343917912 0 0 0
242 1 -5.482251659720307 -1.5146217801991266 0.8921729893708932 0 0 0
392 1 -4.302935334857818 -2.3533681669422784 2.9739280108925836 0 0 0
350 1 -6.852207266344695 -2.3125290795225037 3.2352733905093505 0 0 0
243 1 -3.0296678654683173 -1.6139150343303665 0.6508762246519915 0 0 0
431 1 -0.6466092123023923 -1.5813567627871716 0.5067006603659898 0 0 0
391 1 -1.8047676273435265 -2.3882004941267585 2.664665932662116 0 0 0
423 1 -0.031517223629363045 -5.222604567478603 11.093215287376546 0 0 0
244 1 -11.939577558174577 -13.080807853478502 3.606267661628385 0 0 0
1834 1 -13.40707586225158 -13.588132337498845 6.091797739613552 1 1 0
358 1 -10.806314147430225 -13.718380780030763 5.845599784566955 0 0 0
400 1 -8.433540079082785 -13.968498394421063 5.291133247772459 0 0 0
398 1 -7.560270019422028 -11.64237598920678 4.909061250417091 0 0 0
399 1 -5.97362956584806 -13.890853822452783 5.13360436643484 0 0 0
448 1 -4.0506671396509635 -12.357354253491884 6.622915950433628 0 0 0
440 1 -3.4638558692104073 -14.078729318375519 4.732834946121288 0 0 0
397 1 -5.183567195425747 -11.725225781590652 4.505610635391262 0 0 0
289 1 -0.2770283238075155 -11.860936664953963 3.8229321702910344 0 0 0
817 1 -1.0819003071186941 -14.04688688783153 4.409505696172809 0 1 0
286 1 -1.6876913732579624 -12.594506584438898 6.331839970653897 0 0 0
438 1 -2.72088041569517 -11.821406050267573 4.245344011873273 0 0 0
1243 1 -13.55219285200539 -10.723135739303459 3.4523508982612636 1 0 0
257 1 -12.425598424987525 -11.452871621929981 5.436459772239713 0 0 0
319 1 -11.702996400999675 -9.04302117744448 5.073289882862531 0 0 0
246 1 -9.947312386388077 -11.4056461070556 5.257636721954059 0 0 0
356 1 -9.112084718806223 -9.16105276159141 4.723306603686419 0 0 0
355 1 -8.047548126684593 -9.827507404694073 6.847818892445405 0 0 0
396 1 -6.718174563626143 -9.218433690134631 4.401277585160257 0 0 0
437 1 -4.20022946973614 -9.357411998832635 4.054465038271411 0 0 0
406 1 -5.756252354848769 -9.928208588872632 6.397669382788086 0 0 0
287 1 -0.8720568585112964 -10.332532260166957 5.808881242404615 0 0 0
436 1 -1.8468194744425137 -9.492356628170619 3.7327389627275824 0 0 0
446 1 -3.2586364599378275 -10.006930356557703 6.127646509503732 0 0 0
261 1 -13.36960660160607 -6.8022640942387405 4.765606846762731 0 0 0
317 1 -10.76921180615798 -6.836495748748408 4.320258478349759 0 0 0
316 1 -9.79275823521531 -7.597329818312317 6.490267831513355 0 0 0
354 1 -8.311770228891177 -6.870228968583495 4.14678256377565 0 0 0
353 1 -7.345170236818412 -7.594064860388526 6.292480597696615 0 0 0
250 1 -5.922734946507524 -7.057250124898492 3.8646269087517364 0 0 0
395 1 -4.792356438816663 -7.639595692846528 6.02667760861071 0 0 0
435 1 -3.5177982077614534 -6.989241947040431 3.590448375568579 0 0 0
444 1 -2.4027391822961164 -7.8013309627365786 5.5772125547636 0 0 0
297 1 -11.31541663401251 -5.371352018308647 6.242795702808882 0 0 0
270 1 -12.379486689899979 -4.627752025325398 4.273107579775031 0 0 0
296 1 -12.97607501430783 -3.192933063343956 6.116778121871958 0 0 0
295 1 -10.567830667251146 -2.996110097418809 5.830673467680237 0 0 0
262 1 -9.907814222621518 -4.565799297936763 3.978374341393769 0 0 0
352 1 -7.41783409298425 -4.554199978983004 3.7598502832733995 0 0 0
315 1 -8.858592611624658 -5.1960607590348395 6.002830787525836 0 0 0
314 1 -8.122497826443771 -2.959882096095953 5.546610750138777 0 0 0
363 1 -6.390502803878017 -5.4371011495047235 5.574592550428251 0 0 0
404 1 -4.068679646632555 -5.37075639767604 5.482707678787323 0 0 0
351 1 -5.543220422289711 -3.1395474345781746 5.291621846376094 0 0 0
403 1 -1.569292431980612 -5.679272442133646 5.206439973130307 0 0 0
442 1 -0.7603636541260101 -3.2886776127058717 4.5729377210749025 0 0 0
402 1 -3.1669715908777043 -2.966780563773879 5.014731918989201 0 0 0
271 1 -11.745561083135554 -2.3237461703971665 3.840070222500769 0 0 0
897 1 -12.227369110410706 -0.8370909548654524 5.581127111625678 0 0 0
322 1 -12.316878783532239 -14.325835559612468 8.189782496030913 0 0 0
264 1 -9.260977192260071 -2.3009780537688265 3.5171766184980857 0 0 0
313 1 -9.904204027830199 -0.7218059898359783 5.37721527187715 0 0 0
907 1 -7.469639333590487 -0.6247123767625755 5.326752939001688 0 0 0
349 1 -4.900477506479087 -0.6793562165798086 5.029765434908375 0 0 0
335 1 -6.5165744692902114 -2.832533146721163 11.80753761752023 0 0 0
919 1 -2.3657122917530646 -0.48559523272663263 4.683921173440764 0 0 0
401 1 -1.3499610512005251 -1.5147448318115053 6.604030284067024 0 0 0
1245 1 -13.634645839580436 -7.742261425010645 0.8411129030456532 1 0 0
331 1 -12.780155606875788 -12.619264384726511 10.013724957106318 0 0 0
320 1 -11.3784135660241 -12.08573313449667 7.526531205000397 0 0 0
911 1 -5.7529682467614585 -0.47068926718567106 11.315881862222605 0 0 0
330 1 -10.299328807093497 -12.885282039310287 9.602857539503615 0 0 0
357 1 -8.794131688243752 -12.292685593560938 7.278820241035083 0 0 0
368 1 -7.887626852672596 -13.065506366207122 9.397860440239286 0 0 0
408 1 -6.436278607974862 -12.310610778216171 7.036026271601338 0 0 0
409 1 -5.435316662082645 -13.045344364140433 8.99218463040213 0 0 0
455 1 -3.1049217090649606 -13.218892599890024 8.705262903210864 0 0 0
285 1 -0.615422632451363 -13.27397399067505 8.316198631964058 0 0 0
321 1 -13.056839485428016 -9.757265035889116 7.371748097954844 0 0 0
329 1 -11.954680440041976 -10.472542440913152 9.502436768391119 0 0 0
318 1 -10.581827743686187 -9.795567704580835 7.0793442685547685 0 0 0
367 1 -9.413606137789968 -10.610728218100027 9.205899134747353 0 0 0
366 1 -6.973217790124433 -10.630619672276113 8.859260415263764 0 0 0
407 1 -4.617399976749876 -10.823337183326885 8.37249327614449 0 0 0
459 1 -0.22649819637323354 -9.27883079467846 9.650847970298384 0 0 0
447 1 -2.1380146707419385 -10.880393433166347 8.323661969547368 0 0 0
426 1 -2.667403471232257 -9.205623576933334 10.085929761540202 0 0 0
298 1 -12.307850725396928 -7.445989442306919 6.816129356412096 0 0 0
327 1 -11.114006406291224 -8.106654833392291 9.013721062195602 0 0 0
1250 1 -13.619410993960456 -8.228358789090098 9.346075454122426 1 0 0
300 1 -12.753779749672699 -5.896354765810678 8.85433454464229 0 0 0
302 1 -10.300351878339088 -5.789729591504985 8.381912958379155 0 0 0
365 1 -8.62274423576726 -8.181850039275156 8.612918412945154 0 0 0
326 1 -7.877247853907493 -5.890771163322269 8.145376361593199 0 0 0
416 1 -6.255511075242111 -8.392985946232457 8.44715680921317 0 0 0
405 1 -3.768136871885666 -8.475560144042916 8.106035559232636 0 0 0
375 1 -4.376289606080794 -6.800553025409661 9.799469112559143 0 0 0
364 1 -5.484651657527644 -6.028064698004755 7.8664440707069065 0 0 0
415 1 -1.3922551658944347 -8.606936229330017 7.625056465620885 0 0 0
424 1 -1.9061453603019007 -6.934291007070505 9.60725336867033 0 0 0
451 1 -0.5588180257985886 -6.176390075540278 7.230491303257272 0 0 0
414 1 -3.030608729385598 -6.126605110088999 7.4473837932927065 0 0 0
890 1 -11.80652859309975 -3.7562618871113163 8.276533847222888 0 0 0
325 1 -9.359656933148479 -3.6151247089377616 8.10385053202503 0 0 0
336 1 -8.449462893891534 -4.2115340933726095 10.157060677112023 0 0 0
324 1 -6.851198948596037 -3.6809148993853604 7.660634749463201 0 0 0
362 1 -4.618335859079462 -3.787911052620718 7.420734921902396 0 0 0
374 1 -5.917595328562619 -4.481582030200737 9.735166194006036 0 0 0
373 1 -3.4708083346462466 -4.568529301258174 9.385375027029548 0 0 0
412 1 -1.990376617101477 -3.8582014844865853 6.997151693437614 0 0 0
413 1 -1.0142455638720307 -4.737845048574499 9.047301017485003 0 0 0
292 1 -13.74996234180484 -1.662402809855978 8.038927195641522 0 0 0
900 1 -11.130005383729733 -1.5102252679907515 7.801452569528221 0 0 0
893 1 -12.503028703514723 -2.194033943574423 10.14097132956608 0 0 0
323 1 -8.701799059122163 -1.3440072319983791 7.470898043687344 0 0 0
334 1 -7.482311181938917 -1.9700677586412922 9.62436240251566 0 0 0
299 1 -9.970618008626797 -2.1088953505394628 9.806621842536417 0 0 0
372 1 -5.20939492708103 -2.166995010783758 9.216641647463137 0 0 0
361 1 -6.282369145522946 -1.3356440478257703 7.208609004632885 0 0 0
360 1 -3.9205504547557677 -1.4370689177352283 6.958961057464334 0 0 0
411 1 -0.33467284668399166 -2.3558857369731356 8.639483140423776 0 0 0
371 1 -2.8461862773460442 -2.2726740928055786 9.020225680190334 0 0 0
342 1 -11.655446593264609 -13.536914373520265 12.146378875166894 0 0 0
390 1 -7.269589357126039 -12.136996756358904 13.35169715304067 0 0 0
380 1 -9.224823271078485 -13.615331033576021 11.624657951826885 0 0 0
917 1 -3.262350524771943 -0.608294041976043 10.969876591651163 0 0 0
379 1 -6.8936459604536395 -13.631866047381198 11.446428494156242 0 0 0
419 1 -4.353427362978264 -13.69340100098702 11.066592760237162 0 0 0
428 1 -4.953521643471417 -12.19258260624573 12.93162994665168 0 0 0
417 1 -3.4895634990638875 -11.37393936652015 10.509943533288107 0 0 0
461 1 -2.4436239175253593 -12.142961975762379 12.574204976821763 0 0 0
456 1 -1.8897357264028276 -13.872664073077726 10.733157138992132 0 0 0
304 1 -13.400136334904788 -11.222418158116646 11.962848069324481 0 0 0
340 1 -10.821033933894002 -11.180598058627696 11.574693987709319 0 0 0
303 1 -12.599833328952252 -8.901803262279522 11.48995071687006 0 0 0
74 1 -1.3343244092095716 -5.936577519705155 13.524470367949105 0 0 -1
378 1 -8.38035082291391 -11.258193632080722 11.252749889095822 0 0 0
339 1 -8.92392267461327 -9.667685185815532 13.139653398533861 0 0 0
328 1 -10.07741638681744 -8.934280193954674 11.051590049202419 0 0 0
376 1 -7.584573080793168 -8.929527330655514 10.795528806796453 0 0 0
389 1 -6.511900908283433 -9.729070035623014 12.890428982734191 0 0 0
418 1 -5.945173599438446 -11.273845329783805 10.926809330763641 0 0 0
388 1 -3.9221533196507483 -9.89262404978515 12.553024137199062 0 0 0
377 1 -5.101358803135662 -9.02982709428101 10.46877919154028 0 0 0
453 1 -0.9694421951413492 -11.501488604902791 10.129495998879426 0 0 0