LAMMPS data file via write_data, version 2 Aug 2023, timestep = 0, units = metal

1866 atoms
3 atom types

-13.481249985168011 13.481249985168011 xlo xhi
-14.352093003088553 14.352093003088553 ylo yhi
-14.159270868268115 14.159270868268115 zlo zhi

Masses

1 55.847
2 1.008
3 1.008

Atoms # atomic

1847 1 -10.301116933191794 -11.590817309602137 -9.604757654102915 0 0 0
1865 1 -12.252764012054122 -12.539505172264773 -11.003933091794686 0 0 0
1846 1 -8.767921999202809 -10.423549031688449 -13.214981495328232 0 0 0
1806 1 -11.329976268581685 -10.533231330285169 -12.17249418481533 0 0 0
1849 1 -9.798912659691535 -12.350425528193831 -11.873873946575126 0 0 0
16 1 -11.771946354053973 -13.307122855003742 -13.12009416135027 0 1 1
1851 1 -12.071468714358431 -9.8827251063645 -9.927691532930439 0 0 0
1839 1 -8.669614082596752 -13.48007458943212 -9.355756872772451 0 0 0
1848 1 -9.35236336636223 -9.721247526467078 -10.841008834696742 0 0 0
1863 1 -13.037164643877892 -8.826767072265493 -12.419067710908823 0 0 0
1837 1 -12.959309964067913 -11.778897426363308 -8.631306416784152 0 0 0
1116 1 -8.010314243203979 -14.245835527953833 -11.648325607129475 0 1 0
788 1 -9.100045160137523 -13.116269354210532 -14.142289966946977 0 0 1
1792 1 -10.064791532426929 -8.959484822096186 -8.705634544302242 0 0 0
1864 1 -13.476304916823814 -11.519959454441679 -13.384713443912505 0 0 0
1840 1 -7.764620141326234 -11.539297850445237 -10.620323490064697 0 0 0
1841 1 -7.073859942694507 -12.347134583164278 -12.92169847804568 0 0 0
1022 1 -6.0640844176377655 -13.507775859675231 -10.370297645458848 0 1 0
1794 1 -5.730772776729481 -10.704497684780517 -9.310095227868377 0 0 0
1842 1 -3.422777546315686 -13.280597286915729 -11.281929477044727 0 0 0
1795 1 -3.07493210846987 -10.755486882116003 -10.288245744442484 0 0 0
1780 1 -4.1966944388473735 -12.571930108476634 -9.059883602179129 0 0 0
1737 1 -5.258656094975009 -11.542979098367804 -11.555776713811523 0 0 0
1850 1 -4.601193600267068 -12.098382463394811 -13.809684993914159 0 0 0
1723 1 -6.777988118274787 -9.65936568110077 -11.88465394463577 0 0 0
696 1 -4.157342193808631 -9.611638226428123 -12.945604494019996 0 0 1
1117 1 -5.441473257282253 -14.09458075287596 -12.664578409785921 0 1 0
1032 1 -2.8173497957449563 -14.009435262732767 -13.525954087185127 0 1 0
1807 1 -7.369299029889669 -8.836457361644399 -9.639632290028773 0 0 0
1725 1 -4.827185737435258 -8.860823354936421 -10.66789562168402 0 0 0
810 1 -6.1505622501016015 -10.228565350245656 -14.157811609127505 0 0 1
708 1 -2.422066055347413 -11.48313841667107 -12.530592348730105 0 0 1
1629 1 -2.2582363388209554 -8.93194570492918 -11.53063631082249 0 0 0
1799 1 2.160649849589092 -10.448074299606734 -12.112059699447014 0 0 0
1035 1 1.7693053578716231 -13.23969858769308 -13.044132400241422 0 1 0
1784 1 1.2268518536383208 -12.430977427231438 -10.926235602560435 0 0 0
1726 1 -0.48311206388337524 -10.655821265229397 -11.147409414505049 0 0 0
1025 1 -0.6923404535220783 -13.301103085809606 -12.295372459058447 0 1 0
1033 1 -1.46834133287107 -12.522355662296409 -10.068482669691672 0 1 0
1705 1 -1.2251607723340587 -9.834815120084949 -9.126929891659568 0 0 0
1727 1 0.18519231372985345 -11.34274009519942 -13.380568332965666 0 0 0
1610 1 1.5277752041829515 -9.817928797739256 -9.983298852225337 0 0 0
1631 1 -1.5076191145963342 -9.566767967276517 -13.763550861681978 0 0 0
1707 1 0.4760654435374718 -11.678650136105015 -8.770739571554865 0 0 0
1785 1 3.2038971114672936 -11.750396054253564 -9.715754105578966 0 0 0
1026 1 2.832265052698096 -14.343818976605245 -10.669916219015132 0 1 0
618 1 3.169979832305321 -8.789008858061184 -13.466545971917526 0 0 1
1611 1 3.4724190687163397 -8.939407171917829 -8.775382107979254 0 0 0
1709 1 4.171169720141149 -9.885428070448176 -10.89384431540181 0 0 0
1710 1 5.738029857439836 -11.748266081671687 -10.625843004209337 0 0 0
1786 1 3.8185090715789674 -12.405409493048582 -11.914665122228918 0 0 0
1690 1 7.365846263803698 -13.480438107194372 -10.158144188517026 0 0 0
1592 1 6.730666999698718 -9.895060736998419 -11.75570834613872 0 0 0
751 1 4.830361580015849 -10.724606764361209 -13.128168324189836 0 0 1
970 1 6.452083874440232 -12.484800219771937 -12.810430425891553 0 1 0
1691 1 7.53993332798237 -10.988838587974556 -9.237358375773029 0 0 0
1772 1 4.708064806909606 -13.517815683192483 -9.38208258559935 0 0 0
972 1 8.464250009667511 -11.621734014345787 -11.339698771847281 0 1 0
1590 1 5.904520837824338 -8.979593348963384 -9.684383435114029 0 0 0
1593 1 8.699582328884796 -8.933638912520294 -10.540582644533025 0 0 0
1692 1 7.397970635866168 -10.681011324311905 -13.951660270911301 0 0 0
1800 1 4.584773747948221 -13.308110415371821 -14.017349982762306 0 0 0
1596 1 8.97496797598552 -12.476685771852052 -13.678361285205193 0 0 0
1844 1 12.991635539591963 -10.739685361391698 -11.147075693547826 -1 0 0
1845 1 11.017969848700814 -11.623401355729378 -12.405153314869716 -1 0 0
1594 1 9.297097393041229 -9.781580273401175 -12.764674631554941 0 0 0
1693 1 9.979013136372815 -13.588980111439156 -11.141383070331692 0 0 0
938 1 12.043506734414693 -12.723103003352042 -9.907827818461435 0 1 0
1715 1 12.63431318075474 -13.463307126404827 -12.068226701213957 0 0 0
1617 1 11.93862294782861 -9.706801246012652 -13.674423541512278 0 0 0
1573 1 10.428215041893976 -10.890873564928292 -10.158981615102213 0 0 0
1471 1 12.23032139936011 -10.112119854855546 -8.834675893126164 0 0 0
1671 1 9.312990074487091 -12.803176411169657 -9.012299814118935 0 0 0
939 1 10.793803417217083 -14.184414442096708 -13.360629956391827 0 1 0
1595 1 11.274303008807776 -9.026202875674796 -11.379460663388066 0 0 0
585 1 -10.417445952819492 -8.719144602555467 -13.409671007949676 0 0 1
1805 1 -11.046890162520445 -7.979402089768128 -11.0989573953005 0 0 0
1731 1 -12.521622330048558 -3.604261492499232 -10.370888541768943 0 0 0
1734 1 -10.780678178927532 -5.266053584065304 -10.128430864369097 0 0 0
1411 1 -12.13459642592783 -7.068356298861347 -13.677426507858096 1 0 0
1637 1 -10.194803102264341 -6.117968102289671 -12.41487275874405 0 0 0
1732 1 -11.804070733599914 -4.353886162627907 -12.686564047112741 0 0 0
467 1 -12.708901329770095 -6.312611216463694 -11.459968665886755 1 0 1
1733 1 -9.287014536259537 -6.927913903498768 -9.960612685081882 0 0 0
1735 1 -8.421424364650385 -7.764944766284823 -12.176083089893048 0 0 0
493 1 -9.195051944377152 -4.3016993385086035 -13.67772258031589 0 0 1
1538 1 -8.117938085151856 -5.133765199276803 -11.270348407571744 0 0 0
1623 1 -8.870696924464557 -4.468938151654104 -8.800245179535512 0 0 0
1638 1 -9.933580660100173 -3.437250011777575 -11.418830725617273 0 0 0
1803 1 -11.798551123071206 -7.238571316172141 -8.992419925804683 0 0 0
1736 1 -6.491303702904359 -6.950961348497874 -10.88707842588854 0 0 0
1627 1 -4.608864374022938 -6.059778597296267 -9.668524687233568 0 0 0
494 1 -3.831601175261376 -6.935419336911953 -11.889896564918626 0 0 1
1640 1 -5.518864916274527 -5.077344809111688 -12.133198437693821 0 0 0
606 1 -5.767511630888008 -7.741955630752341 -13.160967783285875 0 0 1
1625 1 -6.246235247144231 -4.332510058547953 -9.945028453046797 0 0 0
1639 1 -7.370619725101649 -5.866379054632343 -13.461540317569822 0 0 0
1524 1 -3.581706676842362 -4.271423815205424 -10.863482210630002 0 0 0
1724 1 -2.881700299733744 -7.993044106672816 -9.448468128493387 0 0 0
1641 1 -2.789876080216125 -4.937555353609261 -13.152099582341076 0 0 0
402 1 -7.133347313274087 -3.3409995096533347 -12.42222400174507 0 0 1
1626 1 -4.239961084503655 -3.4944760108417388 -8.592495965825925 0 0 0
1721 1 -7.164998568509607 -6.298523190963625 -8.694446555177986 0 0 0
617 1 -3.166042468330186 -7.600119919443028 -14.14576478532223 0 0 1
1728 1 0.5412823447644222 -8.658140825655462 -12.529011961971237 0 0 0
1628 1 -1.957359733099878 -6.067898905604441 -10.575528773443533 0 0 0
1630 1 -0.2750280972439185 -8.000995744119418 -10.51887577740269 0 0 0
1505 1 0.20862721827460362 -5.397491733022338 -9.36296914256759 0 0 0
1609 1 1.779016438791535 -7.2940108184521275 -9.1491024388215 0 0 0
1527 1 0.7203516417848839 -5.94977480541233 -11.594900710847021 0 0 0
525 1 -1.1665631870918798 -6.891903555932171 -12.7688440783215 0 0 1
1632 1 2.544667276944013 -7.79197738408207 -11.30072336613221 0 0 0
1526 1 -0.8944317019237502 -4.243202838520229 -11.899762577291433 0 0 0
1427 1 1.8386443833784227 -4.132222203056919 -12.809464032914127 0 0 0
1507 1 2.720593112879877 -5.15575223719989 -10.299000073889495 0 0 0
526 1 1.4434974970160699 -6.750325177860554 -13.717069897636232 0 0 1
1525 1 -1.5890205637099992 -3.5461771242182856 -9.668611157344976 0 0 0
1403 1 1.0171820506908684 -3.3407571748853666 -10.617790670020783 0 0 0
1528 1 -0.15837780219134956 -4.8923018084083925 -14.143452715054712 0 0 0
1529 1 3.4925275914240377 -5.872131377807571 -12.51201950721564 0 0 0
1612 1 4.978023902113572 -7.963027391189631 -12.086381266655255 0 0 0
1509 1 5.975883029495288 -6.244891906526007 -13.313508433421267 0 0 0
1613 1 6.995741905265556 -7.213176170046012 -10.8545882343977 0 0 0
1510 1 7.836113710819328 -5.212165734020012 -12.057532319835317 0 0 0
1508 1 4.415034644447454 -7.050167561439959 -9.963007214421115 0 0 0
1407 1 5.321179244409835 -5.058375790031079 -11.226236793469166 0 0 0
1385 1 7.322666486914526 -4.576361378629306 -9.819064760108025 0 0 0
1615 1 7.618976428447281 -8.02982604412485 -13.094252422449411 0 0 0
1383 1 4.680149524079843 -4.5127728438039405 -8.883732688338256 0 0 0
435 1 4.532978632024035 -3.865795067303468 -13.839734624107269 0 0 1
1409 1 8.726861580708517 -3.373775318802995 -13.2219060042344 0 0 0
1488 1 6.361428832824993 -6.33987363369199 -8.658460283438625 0 0 0
1490 1 8.860306766886206 -6.371310015564123 -9.448749239417166 0 0 0
1801 1 13.40719152761008 -5.412739870797875 -9.167999533668578 -1 0 0
1802 1 13.18658516240144 -8.054339231442288 -10.117380819777761 -1 0 0
1469 1 10.55324951836886 -8.239419025304148 -9.219894987821142 0 0 0
1852 1 12.19245823186421 -7.118824081876694 -12.64550512321175 -1 0 0
1492 1 9.5898853723348 -7.1444412418453265 -11.744952709755694 0 0 0
1512 1 10.489847927657001 -5.2480661838331635 -12.912135268292802 0 0 0
1389 1 12.488117580434617 -4.472713855431012 -11.586281247353948 0 0 0
1387 1 9.824175415067257 -4.485750524757847 -10.688400397109469 0 0 0
1491 1 11.563322094079846 -6.3440398020433015 -10.358916050126542 0 0 0
1388 1 11.718989789576897 -3.7430818106328196 -9.264739431113325 0 0 0
1513 1 10.272926836442123 -7.93116792445958 -14.015933588905234 0 0 0
1514 1 13.167726309964975 -5.294279512725442 -13.894103631409257 0 0 0
569 1 11.513370257243386 -3.383863856641952 -14.131492219773246 0 0 1
1621 1 -10.68236857053676 -2.6367935273124132 -9.068017936938809 0 0 0
1635 1 -11.637146201770248 -1.6856091481385036 -11.635369387527133 0 0 0
1636 1 -9.656701924626741 -0.9224224215441446 -10.355588603173272 0 0 0
1643 1 -10.83613861951471 0.03066644629342896 -12.960532647674079 0 0 0
1534 1 -11.393275493877084 0.9973767104074422 -10.74932879829457 0 0 0
1634 1 -12.241225002508038 -0.8794741652604081 -9.344609439358129 0 0 0
1535 1 -8.891661843275717 1.0720914294540638 -11.719427064520971 0 0 0
1518 1 -9.48162768832708 1.8542205420556623 -9.560279449012715 0 0 0
1543 1 -9.039266892787026 -1.5755173311970783 -12.624618922132484 0 0 0
1541 1 -12.490826171212955 1.9768786560334615 -13.123727800751528 0 0 0
1739 1 -10.897221914934871 -2.510095413814067 -13.866099201308087 0 0 0
1642 1 -13.34684365631911 0.0908260947954993 -11.861954362432982 0 0 0
1536 1 -7.9802134293697895 -2.578692707918746 -10.157089850773671 0 0 0
1304 1 -13.459528172963903 -2.5779232167877186 -12.900624738392185 1 0 0
288 1 -7.929197634721262 0.25752896208153686 -13.870403590952066 0 0 1
279 1 -9.711413458673103 2.0742727289956857 -14.151906966077135 0 0 1
403 1 -4.486718760711241 -3.1229265000929427 -13.436705408970345 0 0 1
1520 1 -7.763927808674605 0.15010841504256867 -9.20466730814964 0 0 0
1522 1 -5.136808602683558 -2.490774504251485 -11.071257766553732 0 0 0
1537 1 -7.078790185018415 -0.6597626553290556 -11.377837061384394 0 0 0
1539 1 -4.227650468732602 -0.5344091755392828 -12.396671628562107 0 0 0
1421 1 -5.070765786752084 0.07799203614019667 -10.225369552055946 0 0 0
1523 1 -3.1975533149166164 -1.5049425334291886 -9.765323740003899 0 0 0
1437 1 -6.0901840737694775 1.1349875138681806 -12.738383536706724 0 0 0
289 1 -6.223399337125233 -1.4763976618288819 -13.642194589723914 0 0 1
1419 1 -6.815655612118066 1.8193307350213583 -10.481024333395707 0 0 0
1422 1 -2.97222642004283 1.0143170713776453 -9.01664468344004 0 0 0
1521 1 -5.94516019241028 -1.7758897137418703 -8.962367912783687 0 0 0
310 1 -3.261192410082426 1.457769257337711 -13.818622598891942 0 0 1
1540 1 -2.5510169358060377 -2.4011190353301846 -12.045307272108285 0 0 0
1438 1 -4.012205765996681 1.942325071403916 -11.511263465762868 0 0 0
1423 1 -2.200484311656311 0.285942749012964 -11.23415896229081 0 0 0
1424 1 -0.6386632486578243 -1.46472984518563 -10.779425766046412 0 0 0
1318 1 0.46148073592435956 0.5648105179516332 -12.277889830735564 0 0 0
1426 1 2.086049277612613 -1.3092246876264202 -11.890013814686421 0 0 0
1402 1 1.4353578791177277 -0.8523914925923055 -9.675229579352422 0 0 0
1425 1 0.17854165851729142 -2.196602045939377 -13.10501111800753 0 0 0
1294 1 -0.3089247060736149 1.1101109215097296 -10.025921396956083 0 0 0
311 1 -1.4421060689750682 -0.3224532036955665 -13.52412923797855 0 0 1
1296 1 2.3805683917285716 1.398137569409574 -10.899607819071715 0 0 0
1404 1 2.9847772256257112 -2.5877107031120907 -9.4251572490992 0 0 0
1316 1 -1.2937612134049985 2.245816662794228 -12.458738017320703 0 0 0
1320 1 2.9944865312584827 0.7805701758546384 -13.276541838267683 0 0 0
1295 1 1.5117564730219186 1.8834994192578254 -8.624772070450257 0 0 0
1401 1 -1.3504602273861845 -0.9160846292103528 -8.610738350239364 0 0 0
1405 1 3.7705910978631874 -3.066016329798382 -11.668718102325379 0 0 0
1429 1 6.351213269506433 -2.768313117176458 -12.578761875747226 0 0 0
1408 1 8.25322820628629 -2.610039942452996 -10.854667731265923 0 0 0
1428 1 4.73555654739315 -1.0348384357081049 -13.073825594890838 0 0 0
1298 1 4.094405460492807 -0.4287987396436854 -10.753500698916893 0 0 0
1300 1 6.667461118402047 -0.3726906213163197 -11.760892099033123 0 0 0
1406 1 5.535053819592383 -2.521014565345096 -10.122131310758416 0 0 0
1280 1 8.162089770156369 -0.25013091137974364 -9.93367647794642 0 0 0
1276 1 4.16228886635041 1.7690485506520712 -9.372016887154892 0 0 0
1384 1 5.7211653786717545 -0.1578577669652308 -9.10756142639734 0 0 0
1319 1 5.155688944917225 1.5469451795199678 -12.0169879107135 0 0 0
1096 1 7.823372726718711 1.8797522770578698 -13.198034716291549 0 0 0
1278 1 6.765201402654215 1.6847419594170834 -10.380893545403588 0 0 0
1386 1 7.521677911999282 -2.1804909679977342 -8.62080508462145 0 0 0
1322 1 7.620263491986178 -0.53411675365302 -14.049961472277863 0 0 0
1301 1 9.099535185060164 -0.9033760815660674 -12.1502298984908 0 0 0
1195 1 9.315701823770715 1.5882012249037523 -11.20674468203215 0 0 0
1410 1 10.71197663044847 -2.739143507416772 -11.868100734907753 0 0 0
1738 1 12.741827977443501 -1.8363974933075689 -10.643655665945314 -1 0 0
1303 1 11.780575300749865 -0.9156246281929814 -13.192939499433356 0 0 0
1175 1 10.933449647586839 -0.16227243214892617 -10.991173163468407 0 0 0
1282 1 10.191309201300635 -1.8907967757787638 -9.568819944584142 0 0 0
1196 1 11.958488698819663 1.8243387231989256 -12.107080952855737 0 0 0
1197 1 9.963418238847025 0.877343550140866 -13.479148777938985 0 0 0
1154 1 12.97815471158741 0.8224025287912973 -9.612313103760192 0 0 0
1173 1 10.153215257096546 0.6014208886071497 -8.70660042605824 0 0 0
1532 1 -13.062138226730845 2.7712489103580875 -10.77270918741614 0 0 0
1542 1 -10.471207493485199 2.8512972954042635 -12.052295023453357 0 0 0
1533 1 -11.210771673672905 3.6637888739325977 -9.596008939093881 0 0 0
1433 1 -9.58920019863098 4.769370482484371 -13.300784512251779 0 0 0
1440 1 -12.049849451394685 7.213646477700413 -11.243412484436565 0 0 0
1442 1 -11.42175494164001 6.394630793900847 -13.439420497111378 0 0 0
1431 1 -10.408584494479182 5.476160016698829 -10.968147460945154 0 0 0
1432 1 -8.302967167433433 6.382489399046966 -9.76768125165173 0 0 0
263 1 -12.290943912940023 4.590109494894305 -12.280795737387518 1 0 1
1417 1 -8.67116813051662 3.734988018779882 -10.678799038498813 0 0 0
1328 1 -9.4372111942326 7.305671855879547 -12.36883399021062 0 0 0
1430 1 -13.056861778655467 5.402455933312909 -10.052354221282279 0 0 0
1308 1 -11.022427005420955 6.251230732544746 -8.752901159133248 0 0 0
1324 1 -12.786542563345819 7.907859879515049 -9.036091846428645 0 0 0
1435 1 -7.812824722992494 2.992512350863082 -12.95906605446516 0 0 0
1434 1 -7.554502553655568 5.578078976558496 -11.874252939124244 0 0 0
1420 1 -4.771259687709019 2.690123877886707 -9.196123286385394 0 0 0
1436 1 -5.666685136278345 3.658077802209471 -11.532264239623593 0 0 0
1330 1 -4.8598660585457925 5.727617737841227 -12.895464183090938 0 0 0
1331 1 -2.9286072086672768 6.554991880065627 -11.742022268510922 0 0 0
1312 1 -5.576576371031915 6.450189051884328 -10.627473771920428 0 0 0
1313 1 -3.6973801632146603 7.298163218592707 -9.47560712575335 0 0 0
1338 1 -6.666842031513129 7.419626926333718 -13.204774399424567 0 0 0
1418 1 -6.603221415663006 4.474157196644272 -9.427960557035771 0 0 0
1332 1 -3.8611844595371068 4.642462617434829 -10.38268249210623 0 0 0
1439 1 -3.0091509044573055 4.090541690302006 -12.68463159904465 0 0 0
187 1 -5.001004802562576 3.0643287238686714 -13.936715665268105 0 0 1
198 1 -4.0980944220439 7.515125353773696 -14.145904897950738 0 0 1
1334 1 1.423940412398558 2.570738856782979 -13.813506218649284 0 0 0
1333 1 -2.11818963818906 6.056654333687577 -14.029233318759356 0 0 0
1315 1 -2.0744741255418937 3.0781738414054356 -10.260859714788305 0 0 0
1187 1 -1.9118111274023981 5.524335731647261 -9.311742533630502 0 0 0
1314 1 -1.0458504844005123 7.42160465210989 -10.626118372830293 0 0 0
1209 1 -1.090943807119002 4.980287507808638 -11.6239653827218 0 0 0
1317 1 0.6980573509297248 3.2879108379462405 -11.235337582137152 0 0 0
1227 1 1.5544161567031036 5.298125540394201 -12.5063825510344 0 0 0
1208 1 0.7510728903863662 5.780668673016747 -10.27985145711277 0 0 0
1191 1 2.5947645509478203 3.9441946159593524 -10.013774070098227 0 0 0
1189 1 -0.1072420241496097 3.751734174600804 -9.017700538429644 0 0 0
1226 1 -0.006330882600154908 6.911506495788052 -12.734073583134537 0 0 0
219 1 -0.294996922886261 4.329477278965603 -13.784181192687447 0 0 1
1190 1 2.596785522075619 6.239943492512838 -8.850591027597318 0 0 0
1113 1 2.653489236644054 7.291087545465581 -14.001903925546051 0 0 0
1211 1 3.3755946609478773 3.582164063647861 -12.486528601448855 0 0 0
1299 1 8.516585661506278 2.5415246446900692 -9.119838923953195 0 0 0
1210 1 3.460773865541656 6.150142789401746 -11.476369500599143 0 0 0
1297 1 5.059304827092104 3.5031716209105728 -10.494285932684281 0 0 0
1212 1 5.667877851060526 5.251469672738077 -11.76053389680489 0 0 0
1193 1 7.366800785547413 3.5574507462361726 -11.509538945869364 0 0 0
1094 1 7.748805614858815 6.128528374042238 -10.66398471091943 0 0 0
1092 1 5.053000742022805 6.070714738378294 -9.543976809064386 0 0 0
1171 1 6.84081564647513 4.339188442177944 -9.216256935331991 0 0 0
1111 1 6.531352991402164 6.95012837779206 -12.968635956053026 0 0 0
1321 1 6.164333940893405 3.7294582931591282 -13.605634832465718 0 0 0
1213 1 4.4696832761479275 5.609014730349797 -13.768762960780196 0 0 0
1214 1 8.412819075184396 5.336715717808842 -12.865276896382397 0 0 0
1016 1 5.802466503282494 7.87177867207941 -10.814814971950154 0 0 0
1018 1 8.580470578087615 8.029113042810758 -11.874722966099494 0 0 0
1174 1 11.216164636098062 2.648822119601684 -9.883037301749258 0 0 0
1097 1 13.044186429503485 6.377176226052546 -12.562232870667808 0 0 0
1078 1 11.985760434035397 4.5112690863821445 -11.286165728334485 0 0 0
1074 1 9.631738561899093 7.147842084801484 -9.256535607345189 0 0 0
1194 1 9.363131131178397 4.436714659516062 -10.235585631543927 0 0 0
1095 1 10.247838548793679 6.191393207309437 -11.627746451386534 0 0 0
363 1 12.701397869430556 3.696877157409242 -13.427034910850674 0 0 1
262 1 10.071682843116646 3.439721828980085 -12.492866333456162 0 0 1
1008 1 12.131999990842063 7.09626660902458 -10.23208832365714 0 0 0
1076 1 11.282513552103834 5.300386682814855 -8.98446341999208 0 0 0
149 1 10.907399531666039 5.367685768008007 -13.851967274782444 0 0 1
1114 1 9.310675194731475 7.154883125551896 -14.131064179793775 0 0 0
1531 1 13.00350756813341 3.4867305065831413 -8.606853702519725 -1 0 0
1326 1 -10.208044623307053 8.07708667720435 -10.09573830588144 0 0 0
1336 1 -12.954133826558197 8.243589584971863 -13.793609936292889 0 0 0
1337 1 -8.422411126861867 9.14313189715258 -13.632726345181789 0 0 0
1219 1 -9.235593100654917 9.972072296951074 -11.299150838569476 0 0 0
1230 1 -11.052626591942015 11.690246801060129 -11.671387842609665 0 0 0
1231 1 -10.204712476992142 11.063054728770245 -13.903764422927011 0 0 0
1335 1 -11.166239278256281 9.163429864510652 -12.662832476637213 0 0 0
1217 1 -11.93742614191834 9.935057673667979 -10.38905870331643 0 0 0
1218 1 -9.038096930209921 12.560346456401154 -10.364683305683247 0 0 0
1229 1 -13.016444434494572 10.895635479490567 -12.889925822627339 0 0 0
1216 1 -11.531153172576044 12.492591015041954 -9.399219298323782 0 0 0
1201 1 -9.815974091542682 10.655595548065316 -9.10247325237976 0 0 0
1232 1 -8.260268080266862 11.884911761676692 -12.544801473328109 0 0 0
1327 1 -8.171691863726995 8.88169084872123 -8.8223743239853 0 0 0
1115 1 -12.65388291782794 13.481298168066067 -11.793562980399773 0 0 0
11 1 -12.054280011628741 12.808301502053643 -14.11832802686278 0 0 1
1310 1 -7.391822460300478 8.203268536727448 -11.175495545786617 0 0 0
1329 1 -4.787785900895891 8.380352303929408 -11.937574730822197 0 0 0
1205 1 -5.512852858915645 8.979482104538244 -9.741679400956638 0 0 0
1118 1 -5.598346506806374 11.897478840014381 -13.669677831467387 0 0 0
1119 1 -3.720410214949089 12.817295080606636 -12.295213801515011 0 0 0
1120 1 -3.9063659393025105 10.1655064103017 -13.345382812615487 0 0 0
1221 1 -6.577865747008771 10.18076126668016 -12.37335062477995 0 0 0
1222 1 -4.571459969579859 10.832033478254909 -11.148220016542252 0 0 0
1220 1 -6.314267989328399 12.714907953315821 -11.337110591542096 0 0 0
1203 1 -7.298424669680419 10.819915699652116 -10.02364751130481 0 0 0
1224 1 -2.8109556708924988 9.100383607219689 -10.712462645746852 0 0 0
1084 1 -5.3588872758162545 11.620515793286826 -8.802575936059457 0 0 0
1104 1 -2.8031131233548106 11.728143567827262 -9.749015014567734 0 0 0
1101 1 -7.087723130097759 13.445172456346002 -9.073489544344504 0 0 0
1103 1 -4.35832640927242 13.444400991313968 -10.170224766260173 0 0 0
1109 1 1.9917348665782288 8.080168593121188 -11.97790307540039 0 0 0
1188 1 0.9454334634418426 8.13132398917764 -9.130085989497989 0 0 0
1207 1 -2.2603852445831087 8.547943652778232 -12.967957432503525 0 0 0
1105 1 -2.1091584711741724 10.958617102405254 -11.98237403639563 0 0 0
1107 1 -0.2401936864504357 9.26048647741195 -11.801487240832923 0 0 0
1121 1 -1.0808779885575888 12.82521073640117 -13.18261156223994 0 0 0
1108 1 1.6489207292893173 9.918002048776005 -10.365895650287632 0 0 0
1106 1 -0.026770034984133773 11.58865022933085 -10.693413120329424 0 0 0
35 1 0.7400198856868787 11.08442203204689 -13.094287624426048 0 0 1
1086 1 -1.0197793473547492 9.93056702783676 -9.437459418976008 0 0 0
1012 1 1.904549786178876 12.533287841282354 -9.357850107750604 0 0 0
1123 1 2.4681683990445134 11.740753123493414 -11.50448080301194 0 0 0
1124 1 3.059294544478588 10.681636910850186 -13.513504978566962 0 0 0
1796 1 -1.7330949608242552 13.580841845986575 -10.968506345514346 0 -1 0
1024 1 0.8616489757344468 13.547239563795854 -11.971891642471359 0 0 0
1090 1 3.3756477418621262 8.127025216669333 -10.01682222157465 0 0 0
1029 1 4.742788468440606 8.479154675856991 -13.049878107092608 0 0 0
1093 1 7.783003528390628 8.795101564023826 -9.768372814678731 0 0 0
1028 1 5.134217065127112 11.590534565566488 -12.499572926782347 0 0 0
1110 1 4.113695023619664 9.856618922754867 -11.242408467173824 0 0 0
964 1 7.093225753217903 12.411448778380807 -11.243755079168864 0 0 0
1015 1 6.77996000279636 9.733410030044945 -12.157988611547387 0 0 0
1027 1 4.525742253311966 12.498441596752725 -10.325007669534283 0 0 0
1031 1 7.640832411618929 11.511640123073791 -13.425879709707656 0 0 0
1091 1 6.136396928345947 10.623572397351117 -9.917163556892056 0 0 0
1002 1 3.477910094322917 10.64569078947328 -9.06410428991955 0 0 0
1014 1 5.311885750251784 8.94451778105453 -8.60757886910601 0 0 0
963 1 6.522065696755407 13.216083499921305 -8.98910100307075 0 0 0
1017 1 8.719555011124863 10.697369248579994 -10.957717399601894 0 0 0
4 1 6.037174327742127 13.539703224499432 -13.744509516652759 0 0 1
957 1 8.101674506012595 11.473583176863519 -8.618033119463824 0 0 0
3 1 3.5775607194541426 13.439771225322572 -12.748473628049975 0 0 1
1228 1 13.465077370883945 11.692633403658983 -10.639720795988335 -1 0 0
1020 1 11.144098212918733 8.134866212770605 -12.844390548303346 0 0 0
1021 1 13.165288988480262 8.797667478938264 -11.690487932195133 0 0 0
966 1 9.690783956862331 12.5556825608244 -12.100341369347365 0 0 0
1019 1 9.503385158162525 9.846517168468514 -13.184393733675295 0 0 0
961 1 11.56944383501409 10.855652320605186 -11.851878069105458 0 0 0
959 1 10.746563227653917 11.484053380882793 -9.522594018545313 0 0 0
1006 1 10.610301075721685 8.975278899093516 -10.634516527683001 0 0 0
160 1 12.358754647989235 12.796743603922058 -13.133621370024906 0 0 1
1007 1 12.551332554097046 9.713197873939384 -9.330906313249649 0 0 0
965 1 9.083735904083627 13.217129095579873 -9.895527217633026 0 0 0
967 1 11.596350635318712 13.337299568524722 -10.871588920160153 0 0 0
174 1 12.221213631119197 9.984975511429125 -14.13400233322112 -1 0 1
1125 1 -10.593032889113285 14.31888033093117 -10.640248776632781 0 0 0
1126 1 -10.084516342752597 13.697807397250306 -12.861563518816219 0 0 0
1861 1 -13.191434519714367 14.31778030348186 -9.46893067066297 0 -1 0
1843 1 -2.364767737335841 14.22603596040402 -8.66074547085609 0 -1 0
1127 1 -7.320511853432224 13.837203688671933 -13.879112667893162 0 0 0
1783 1 0.370223841997781 14.343529129060938 -9.782865801355676 0 -1 0
962 1 5.624195557037483 14.300166259356752 -11.47702039625337 0 0 0
968 1 8.069869575055707 14.276670266798183 -12.398895577994967 0 0 0
1672 1 11.029571629993987 14.212777574596936 -8.645391101904083 0 -1 0
1831 1 -8.46650540164201 -10.850937377148238 -8.356563983079226 0 0 0
1862 1 -11.259837795500745 -13.666018712343108 -8.44358167791464 0 0 0
1838 1 -11.720533003565333 -10.190359180213052 -5.16579372337619 0 0 0
1828 1 -11.953441201648655 -12.689306507406224 -6.01233158335137 0 0 0
1829 1 -9.979206867490936 -11.848008235927535 -4.863173312460162 0 0 0
1830 1 -9.346846408415885 -12.708648261941054 -7.127624801953556 0 0 0
1856 1 -10.985832250205236 -13.90056029489757 -3.5471619352214354 0 0 0
1778 1 -11.162461496361473 -10.907937066036467 -7.434404034503761 0 0 0
1762 1 -9.821312942393252 -9.415069903426495 -3.878353409148307 0 0 0
1820 1 -9.100910142258215 -10.13744931046007 -6.080977003116637 0 0 0
1821 1 -8.354867076230672 -13.771463661787422 -4.617406742723864 0 0 0
1858 1 -12.68605962287328 -12.034906707258504 -3.745715471122434 0 0 0
1790 1 -12.783632303240095 -9.173180867727098 -7.711765178750267 0 0 0
1748 1 -8.037171087692428 -11.082221779803005 -3.4899087445094423 0 0 0
1703 1 -3.8574363406322743 -9.931211080281681 -8.063381840898202 0 0 0
1793 1 -6.447544287512223 -9.973402094244936 -7.103881125483551 0 0 0
1823 1 -7.43626563358884 -11.951743644455751 -5.841676302453946 0 0 0
1832 1 -6.752692009477224 -12.721155211173137 -8.202505762288396 0 0 0
1766 1 -4.841722600802326 -11.722316886023316 -6.702433358605528 0 0 0
1824 1 -3.222369987991293 -13.626607966673983 -6.508639745980698 0 0 0
1822 1 -5.794110876069055 -13.82623804443392 -5.5525487770967334 0 0 0
1765 1 -5.516902726206429 -11.03330296562909 -4.499819423211706 0 0 0
1750 1 -3.9263849926122028 -12.89355466187581 -4.331057961954965 0 0 0
1764 1 -7.248383057527075 -9.226764940317377 -4.844474037846066 0 0 0
897 1 -6.539788007363205 -12.978708051116012 -3.2480851825721366 0 0 0
1661 1 -3.627820359530732 -10.245744132657581 -3.3426386513189 0 0 0
1781 1 -2.8263814745649167 -10.901292592256127 -5.606918186877074 0 0 0
1779 1 -4.6236136652154585 -9.144235376756708 -5.884141195257952 0 0 0
1010 1 2.2255068253831247 -13.506574887385796 -8.444096878463817 0 1 0
1797 1 -2.2534185663176665 -11.701574398654419 -7.907530633526712 0 0 0
1708 1 2.4585675365572293 -10.918090745718771 -7.517592304283624 0 0 0
1782 1 -0.529720695156433 -13.532933375840589 -7.536860136262282 0 0 0
1768 1 -1.1607448579750592 -12.666702267601334 -5.317463565074791 0 0 0
1706 1 -0.07499851188832807 -10.96657212189129 -6.61167748481415 0 0 0
1686 1 1.4535983089462352 -12.73088924781021 -6.27524510114652 0 0 0
1665 1 0.7435875906723357 -12.01539337080766 -4.018310634681086 0 0 0
1684 1 -0.9245286030748563 -10.218599185652188 -4.303934168351576 0 0 0
1685 1 1.7045269484965466 -9.994824997801377 -5.173279728583127 0 0 0
1743 1 2.394918473670998 -13.882483309638332 -3.7833032502372372 0 0 0
1704 1 -1.8313254772464589 -9.132264598841353 -6.815316758383588 0 0 0
1588 1 0.7679489035588816 -9.064723554492716 -7.878224349405489 0 0 0
1767 1 -1.953154636268362 -11.948613111915794 -3.0432283735240393 0 0 0
1753 1 0.855480247671272 -9.308951561504804 -2.961824279139231 0 0 0
1650 1 3.4358704376746605 -11.923690737410501 -4.924182161176251 0 0 0
1688 1 5.0383558730799205 -10.885845131364032 -8.388203502254587 0 0 0
1771 1 4.176375911449481 -12.713414446931392 -7.213173823344211 0 0 0
1689 1 6.77752050801803 -10.062691153621422 -6.936503106473945 0 0 0
1667 1 5.99812941149345 -12.046469201353265 -5.703177525163266 0 0 0
1687 1 4.3069691943634165 -10.034264002431415 -6.121115511836489 0 0 0