LAMMPS data file via write_data, version 2 Aug 2023, timestep = 0, units = metal

1868 atoms
3 atom types

-13.785821252441743 13.785821252441743 xlo xhi
-14.715302356662548 14.715302356662548 ylo yhi
-13.488926545292143 13.488926545292143 zlo zhi

Masses

1 55.847
2 1.008
3 1.008

Atoms # atomic

937 1 -11.232819800432413 -12.96542827461889 -11.108228865675256 0 0 0
946 1 -9.402498367038774 -11.808777584085037 -12.303916800900094 0 0 0
952 1 -11.898216687475925 -10.5826573691494 -11.225163507063296 0 0 0
953 1 -11.892725348391181 -9.773089260509805 -8.975845713073056 0 0 0
954 1 -11.28620886248975 -12.043141533612829 -8.907731189576186 0 0 0
939 1 -13.406379489467051 -12.957460961910162 -12.120289340155583 0 0 0
948 1 -9.652755438302691 -10.741606789737848 -10.17824282808071 0 0 0
944 1 -8.766851956110397 -14.120533208792194 -12.300451848080916 0 0 0
949 1 -8.871674639564677 -13.185085183836009 -9.920923024701477 0 0 0
1522 1 -12.67118824416252 -14.309826133263323 -9.75739425619407 0 1 0
1635 1 -10.403793804399463 -14.421588858653152 -8.6600518635126 0 1 0
940 1 -13.522463732145818 -11.93890838823215 -9.944557688303863 0 0 0
945 1 -10.177914367153207 -9.416162445740365 -12.569283542107996 0 0 0
992 1 -9.704906815750114 -9.741217073745473 -7.903931591988121 0 0 0
716 1 -11.03304677532402 -13.95797492921375 -13.208080233283475 0 0 1
942 1 -4.836549251988515 -12.980760771562025 -12.571459193823662 0 0 0
943 1 -6.512781521223302 -14.191364639598008 -11.19480537541197 0 0 0
971 1 -5.608736361141045 -10.507331489354696 -12.62329136233395 0 0 0
973 1 -5.108750388488767 -11.902967241711057 -10.272606448406545 0 0 0
966 1 -3.4569597073080818 -10.662473461741783 -11.452895886184926 0 0 0
981 1 -7.222326938746312 -11.726163969666384 -11.376989484464337 0 0 0
972 1 -3.5245499326718353 -9.750373827965742 -9.23118937909269 0 0 0
976 1 -6.727741180642961 -13.156064399328024 -9.022099786575827 0 0 0
1050 1 -7.35243573263259 -10.778029489944721 -9.112789209696757 0 0 0
975 1 -4.377601287407689 -14.252861017296437 -10.073691731207319 0 0 0
980 1 -5.686375675990357 -9.560326265177919 -10.310422192083921 0 0 0
979 1 -7.99322439134177 -9.420385577953565 -11.477810632196753 0 0 0
974 1 -5.22833730815988 -10.997376807254508 -7.872694513189257 0 0 0
1027 1 -2.8024859247202 -12.120888923479678 -9.09741710612479 0 0 0
967 1 -2.7400786147282723 -13.134683400549221 -11.391296946578713 0 0 0
965 1 -0.4920320013588686 -13.130445431100448 -10.37596661474932 0 0 0
1018 1 1.2385787522322769 -11.762433596031421 -11.667429979273871 0 0 0
1019 1 1.8978960262501943 -14.235870467238497 -11.507482447452055 0 0 0
1020 1 1.1318189034270816 -10.834041263981634 -9.416220462466132 0 0 0
1021 1 1.7886840358578802 -13.186998834158999 -9.312649483481184 0 0 0
964 1 -0.9792889920755474 -11.664817967073509 -12.637926416168327 0 0 0
290 1 -0.38759155844646465 -14.057887107861529 -12.554999025606975 0 0 1
1026 1 -1.098778113439522 -10.76557164046132 -10.400294772395823 0 0 0
1028 1 -1.3666384808907974 -9.73863690464915 -8.115971938179781 0 0 0
1106 1 0.3952813274424436 -9.464229112769551 -11.85328435001147 0 0 0
969 1 -2.1128312118896044 -14.371862416508783 -8.910651144437573 0 0 0
1025 1 -1.7654316925709992 -9.258896449077646 -12.924279934044073 0 0 0
1029 1 -0.5455221603967466 -12.136570526942137 -8.0140277339055 0 0 0
1108 1 2.7533122012995825 -9.557922212409988 -10.987264390008724 0 0 0
289 1 2.7894673872919675 -10.68447211775224 -13.190698429478223 0 0 1
1013 1 5.776874873788838 -13.080325781696303 -11.76544523349048 0 0 0
1016 1 3.466329336370624 -11.934238395537449 -10.708265708593421 0 0 0
1098 1 5.195895076570238 -10.64375287441006 -12.017972043067596 0 0 0
1093 1 7.335862960134662 -10.714392376617784 -10.74790388488558 0 0 0
1099 1 4.878868403406329 -9.670082566215873 -9.739197311886452 0 0 0
1100 1 5.6785780792024525 -11.990813387152347 -9.533748794071084 0 0 0
1206 1 7.211638011708683 -9.652777025510861 -8.68908552081152 0 0 0
1014 1 3.5696152662663323 -13.06286009117839 -12.910294458009156 0 0 0
1102 1 6.270246913006456 -14.372231723536707 -9.406525229924668 0 0 0
1015 1 4.0839593220826025 -14.351309696905298 -10.444936636841062 0 0 0
1095 1 7.958644231458628 -12.130356106107161 -8.430475827924361 0 0 0
1094 1 8.086596108533538 -12.974324593683725 -10.777457860994163 0 0 0
1092 1 7.442856139468898 -11.759657428256046 -13.057711561368858 0 0 0
1110 1 3.361094278464744 -10.989093783895473 -8.42487303539409 0 0 0
1012 1 8.226244573003346 -14.109311059321145 -12.903242270169741 0 0 0
1017 1 4.04804181243534 -13.336265312602418 -8.183417145351118 0 0 0
1091 1 6.766783182119415 -9.469115180682062 -13.32854138508007 0 0 0
1089 1 8.592950878194596 -14.405834953727052 -8.327119749693889 0 0 0
1184 1 13.554063680442017 -10.700957752097075 -12.40296755660885 0 0 0
938 1 13.517787256996542 -9.662889607110358 -10.076105870431718 -1 0 0
1086 1 10.446810925039259 -14.072191246485664 -11.884690282253866 0 0 0
1088 1 9.714067751516822 -11.733089946914728 -12.136290923109044 0 0 0
1090 1 10.279033432628907 -13.203942862279957 -9.691166644118788 0 0 0
1187 1 11.851090679409104 -10.908061297238334 -8.756279830758935 0 0 0
1194 1 9.600585019766957 -10.874330528942107 -9.844479253999262 0 0 0
1301 1 11.960079147233472 -11.847915276026221 -11.045290315541207 0 0 0
1186 1 12.629543753757588 -14.286556319171998 -10.91771885901073 0 0 0
1185 1 11.226124014018868 -9.611288354643037 -11.273655793632685 0 0 0
1188 1 12.535502390800783 -13.281864507756612 -8.586146478503283 0 0 0
1192 1 8.942521223172104 -9.49759316988084 -12.39708299917947 0 0 0
15 1 12.07801115429875 -12.897389487175973 -13.332101291060388 0 0 1
11 1 11.277419357383465 -10.572709843047388 13.462737150223182 0 0 0
951 1 -12.536587121742278 -8.374850721617303 -11.490635967303117 0 0 0
990 1 -10.29179413100295 -8.349690180618556 -10.393668485787941 0 0 0
988 1 -10.80487700417898 -7.095488838552699 -12.801304686405418 0 0 0
989 1 -13.188072850053333 -5.97837450904877 -11.612482829215853 0 0 0
1058 1 -11.483625891184634 -4.591268352580011 -12.806241464168307 0 0 0
1001 1 -12.676024774880531 -7.371388217187285 -9.242574956552264 0 0 0
1072 1 -13.246499022483357 -4.94526988352794 -9.369960852985567 0 0 0
1060 1 -10.890939891850731 -6.003994966997054 -10.476734918268116 0 0 0
1047 1 -9.283566061204962 -4.685858786586694 -11.81632717239771 0 0 0
1143 1 -8.765813697832936 -6.112702457003667 -9.383471572413733 0 0 0
978 1 -8.522443779981472 -7.032753891268819 -11.699347784800826 0 0 0
1061 1 -11.096924805418853 -4.976911931405619 -8.25909390891281 0 0 0
1154 1 -9.343703645415065 -3.676610549212647 -9.467667917770285 0 0 0
991 1 -10.42345079437514 -7.3784099538461945 -8.116871230581744 0 0 0
1059 1 -11.692315574558346 -3.678968489179768 -10.68981854609382 0 0 0
1070 1 13.666991952347963 -3.5617039688830374 -11.857992817263199 -1 0 0
1049 1 -8.082118122483177 -8.534520064296252 -9.218844568773703 0 0 0
970 1 -6.234785984023844 -8.125970561712744 -12.775436842654202 0 0 0
1035 1 -4.1093942341866825 -8.1017509960602 -11.766125760453974 0 0 0
1034 1 -4.872427715299196 -5.831051613230992 -11.89314875677067 0 0 0
1046 1 -6.959960705298419 -5.842985806261346 -13.056766518401684 0 0 0
1036 1 -6.392770198194739 -7.232019187965168 -10.548477891218521 0 0 0
1142 1 -7.051611541623038 -4.764311394120428 -10.707585855920259 0 0 0
1131 1 -4.898707625381725 -4.8415996497130305 -9.584866980507229 0 0 0
1133 1 -4.235645218983214 -7.298026562030142 -9.388145887354767 0 0 0
1144 1 -6.597601079125417 -6.197344612486061 -8.367372930280494 0 0 0
1253 1 -7.109554168434022 -3.8064989578816597 -8.428423569127968 0 0 0
1048 1 -5.812897016291347 -8.543274951417636 -8.064049629456353 0 0 0
1129 1 -3.2346933719318844 -3.6347184911454935 -11.00530755316358 0 0 0
1140 1 -5.525282996358259 -3.4043022025565417 -12.136752930565006 0 0 0
1128 1 -3.0749983051586742 -4.511035232276365 -13.291200094073714 0 0 0
1241 1 -2.613721480230474 -4.969469796502173 -8.592054052081835 0 0 0
1045 1 -7.771050050622476 -3.2979799733823256 -13.20671461959434 0 0 0
1130 1 -2.5399506707805557 -6.016183363422845 -10.754044856700924 0 0 0
1037 1 -1.8358281285493252 -8.28213491901708 -10.626451112518017 0 0 0
1116 1 -1.0351508575926687 -4.768531139241533 -12.176770717352085 0 0 0
1117 1 -0.3355484946560505 -7.144213533105574 -12.07422661664514 0 0 0
1227 1 1.1621391647415358 -4.898411621737145 -11.254224017981578 0 0 0
1107 1 1.9351610917368696 -7.272121563583601 -11.01282407091952 0 0 0
1119 1 0.35209195423411543 -8.49874444641959 -9.62242194535342 0 0 0
1132 1 -1.9654166134308557 -7.394585330192724 -8.421589773815708 0 0 0
1118 1 -0.26819646410347353 -6.15451390732593 -9.776671727428342 0 0 0
1229 1 1.8412695651419657 -6.2730624566366835 -8.67113491101104 0 0 0
1024 1 -2.5125118930697123 -6.952250598271198 -13.1143017682928 0 0 0
1109 1 2.596263124545832 -8.656888587396594 -8.437119449654379 0 0 0
1228 1 1.154881743392421 -3.9126838497227574 -8.940617341297436 0 0 0
1202 1 2.100602836309042 -8.20630516973105 -13.267163975099916 0 0 0
1239 1 -0.8744670427878383 -3.838083915514636 -10.011768189953315 0 0 0
284 1 1.297750121502519 -5.907496094508552 -13.413553115855061 0 0 1
1097 1 4.356932211215089 -8.402163236095525 -12.245751944097922 0 0 0
1204 1 6.581119607210777 -8.311563947977431 -11.081244459335252 0 0 0
1203 1 5.769237466583029 -5.97857400174591 -11.160534495609621 0 0 0
1214 1 3.580759844847929 -6.004453446168764 -12.261143236161843 0 0 0
1215 1 3.3730356110857365 -5.048349175342246 -10.112287369451234 0 0 0
1205 1 6.5216574704409425 -7.348292011798712 -8.806069894266315 0 0 0
1216 1 4.1960419432470495 -7.4524259170127625 -9.821891783176525 0 0 0
1332 1 5.704533166088012 -5.035121743091697 -8.895922675389318 0 0 0
1306 1 7.542895323633893 -4.779569502542149 -12.493736991654185 0 0 0
1191 1 8.183815394311114 -7.125071102110905 -12.418501862661778 0 0 0
1319 1 8.137298957615688 -6.142632898699324 -10.158830128669393 0 0 0
1434 1 7.447037100408945 -3.685652051411669 -10.308312451783959 0 0 0
1318 1 5.131742952828187 -3.5906058160686136 -11.27758092812748 0 0 0
1193 1 8.95018129232303 -8.535381115031965 -9.987215927655662 0 0 0
999 1 12.082627427083445 -5.917440318615027 -12.680869338902749 -1 0 0
1300 1 12.826609946212919 -7.266644032401755 -10.277945725508955 0 0 0
1000 1 12.036205412198434 -4.90622622141926 -10.47033247814489 -1 0 0
1307 1 10.47157373160973 -7.216578296189098 -11.364893047880724 0 0 0
1422 1 9.70121393456349 -4.805280357049083 -11.52770030917635 0 0 0
1309 1 11.09237193846704 -8.53127475301834 -8.886564424057372 0 0 0
1308 1 10.489816117219643 -6.284635720508016 -9.182468228186005 0 0 0
1299 1 12.82498700612059 -8.237366693094796 -12.479734596354847 0 0 0
1079 1 11.84251780372605 -3.8307671203528155 -8.19108380971743 -1 0 0
1423 1 9.733858067608406 -3.7681135832974046 -9.312031127359226 0 0 0
1424 1 12.650145776472883 -6.260856747375611 -8.052543404230324 0 0 0
1418 1 11.444421092932583 -3.518547360623236 -12.988561215138198 0 0 0
1057 1 -9.923538662256544 -2.3892649602331932 -11.923752872997524 0 0 0
1069 1 -12.232516255184407 -2.3383816188306543 -13.145882440195864 0 0 0
1164 1 -10.14032797595556 -1.4242214843755754 -9.679095867651784 0 0 0
1162 1 -10.706927311719234 -0.037438525731658956 -12.176870554112543 0 0 0
1163 1 -10.855614926700605 0.9330472327411794 -9.877782164959644 0 0 0
1173 1 -13.083320425828639 1.023557771660629 -10.979117407713884 0 0 0
1175 1 -12.442847991295851 -0.35894723676941886 -8.680380555370146 0 0 0
998 1 -12.283830130028734 -1.3872277862539573 -10.8362852146737 0 0 0
1166 1 -11.586539227468693 -2.7265480903184063 -8.35498291034191 0 0 0
1273 1 -8.513014287821646 0.9437097984506906 -8.846135408515448 0 0 0
1151 1 -8.426155958116873 -0.00845610631027327 -11.124530201624433 0 0 0
1537 1 -12.902297011882986 0.011736599583038299 -13.220703403631491 1 0 0
693 1 -8.328103389325275 -0.9567102454306884 -13.343399228184452 0 0 1
694 1 -9.13664316181129 1.2786421254272646 13.390838345643173 0 0 0
1174 1 -13.080056503594749 1.9980364453181316 -8.784922332994556 0 0 0
1153 1 -7.800970756899663 -1.3695337623410602 -8.565824069044082 0 0 0
1152 1 -7.707139084221024 -2.3583669241107366 -10.939963448488637 0 0 0
1139 1 -6.132111850280354 -0.9514419371391654 -12.373251572996434 0 0 0
1141 1 -5.555950617224312 -2.4347075435106067 -9.768566216208677 0 0 0
1249 1 -3.9250967201061293 -1.29020891915588 -11.243823642482187 0 0 0
1248 1 -4.579720817288573 1.0589413813413806 -11.352407002638948 0 0 0
1259 1 -6.830039070659707 1.219361047650418 -12.559804615154748 0 0 0
1261 1 -6.1148229718886915 -0.21041300075764546 -9.934654991495574 0 0 0
1250 1 -4.029863302740578 -0.33970483267386875 -8.816533106355141 0 0 0
1251 1 -3.334875637333015 -2.573952937750464 -8.769415655909555 0 0 0
1127 1 -3.769336812960491 -2.1188468717899003 -13.458854870401055 0 0 0
1376 1 -4.737104756991714 2.093046170376457 -9.120769581300134 0 0 0
1260 1 -6.930207137678125 2.1682580303848304 -10.169008702060147 0 0 0
1330 1 2.9240518638596384 -3.4317400021698194 -12.57694229279913 0 0 0
1236 1 -2.115010605136323 0.03495276020366411 -12.620773581852252 0 0 0
1364 1 -2.465123610122342 0.9815805361390577 -10.186999698357752 0 0 0
1237 1 -1.6712144506511333 -2.2590849597368834 -12.260768771312508 0 0 0
1238 1 -1.7283521218711098 -1.253008302064547 -10.100749218059107 0 0 0
1226 1 0.5824418373263818 -2.4138629651936014 -11.329306862367236 0 0 0
1339 1 1.6116244872433985 1.247637512878308 -12.65396178976663 0 0 0
1352 1 0.04120871359569911 0.06047352056080335 -11.285038423497344 0 0 0
1340 1 2.1940885051461105 -1.1215487911512394 -12.631757471848967 0 0 0
1341 1 2.295575686818534 0.08597582030571438 -10.360982510499195 0 0 0
1354 1 0.5367118629281329 -1.5133586009210784 -9.221598508880739 0 0 0
1353 1 -0.014231476671318077 0.9708819706674294 -9.067847390577487 0 0 0
1468 1 2.1170095195281995 0.7077786423286909 -8.039677500335712 0 0 0
1365 1 -2.539601516198248 1.9443932328925513 -7.859060713698627 0 0 0
1342 1 2.932552342182781 -2.563482114749016 -10.170724967884013 0 0 0
1329 1 4.508021566153861 -1.1716667083573071 -11.44248795444404 0 0 0
1444 1 6.778836588772357 -1.1427900460252793 -10.363873996169083 0 0 0
1442 1 6.083843574599285 0.11233349742915522 -12.719258624068413 0 0 0
1443 1 6.076549116839573 1.1861821745425285 -10.560621178465983 0 0 0
1454 1 3.856379735679578 1.3039696880848624 -11.663660408209996 0 0 0
1331 1 5.207089431363425 -2.4523274729930495 -9.035938455858757 0 0 0
1456 1 4.4853349589158285 -0.12079314163047172 -9.276117305263437 0 0 0
1432 1 6.8287762980492275 -2.3795780722285667 -12.60137954946741 0 0 0
1445 1 6.697409557782731 -0.2125791092813607 -8.076746846664086 0 0 0
1559 1 8.311868524004822 1.038428182086415 -9.469071719041352 0 0 0
1431 1 8.455832228322151 -0.05294146196478522 -11.776232918091896 0 0 0
1446 1 7.329399823850906 -2.6579302451876785 -8.041900840704729 0 0 0
1071 1 13.623076855522637 -2.677852727718392 -9.43402712524655 -1 0 0
1433 1 8.935408112009707 -1.3934890948275225 -9.289756210825233 0 0 0
1421 1 9.10795614116996 -2.4304716361117578 -11.620809613363246 0 0 0
1539 1 13.15281277699171 -1.117162930020637 -11.826073562031945 0 0 0
1538 1 12.346321414089843 1.1185202626835462 -12.159459523848355 0 0 0
1547 1 10.578375590744677 -0.22646508454110048 -10.625192639345933 0 0 0
1540 1 12.741609029190599 -0.31712868110110826 -9.632712179672884 0 0 0
1541 1 11.438447676056906 -2.483652271781734 -10.582019183522275 0 0 0
1548 1 10.566097374561192 0.8372199878119044 -8.405375204765225 0 0 0
1419 1 10.80270645627743 -1.1601604205240026 -12.949726263861336 0 0 0
1549 1 11.17351901856049 -1.5181779620358888 -8.317159781935917 0 0 0
1430 1 10.174881178799545 1.0676578349019223 -13.093681040666363 0 0 0
1271 1 -9.171318002177262 2.4251852483487006 -11.208911973764526 0 0 0
1161 1 -11.351071545630202 2.344887966249697 -12.383369882376908 0 0 0
1270 1 -9.861377747536753 4.764478578950953 -11.53241179047886 0 0 0
1281 1 -12.166274162178315 4.7557472875751365 -12.585387599017892 0 0 0
1282 1 -12.19173931249474 5.7652618127964494 -10.268394379306931 0 0 0
1283 1 -11.504697408379258 3.2699663201767066 -10.192775459640782 0 0 0
1272 1 -9.264511117478442 3.319403096226445 -8.974391076763748 0 0 0
1398 1 -9.92275285774737 5.643350892511954 -9.182205816657444 0 0 0
1396 1 -10.5371080517574 7.0936273758191355 -11.524779826785114 0 0 0
1280 1 -12.848744202957729 7.13392523815115 -12.708833494339494 0 0 0
1385 1 -8.26625322341114 6.850731232690006 -10.461971560174327 0 0 0
1651 1 -13.671033226861224 3.289941684604699 -11.186166327294524 1 0 0
1747 1 -13.693908390774546 4.412246731319353 -8.824140820963834 1 0 0
1384 1 -8.12767860952571 5.949978557414177 -12.636459508687732 0 0 0
1362 1 -2.961865866237254 2.451614431724039 -12.77961567181984 0 0 0
1258 1 -7.5870710159016905 3.575920862709239 -12.610023811008372 0 0 0
1386 1 -7.670446498212036 4.525640060492329 -10.27378359536244 0 0 0
1361 1 -3.7545826718522957 4.7981251174969195 -12.979039238036023 0 0 0
1373 1 -5.948189340327857 5.869655328850136 -11.631751022682923 0 0 0
1374 1 -5.409095067510149 3.523658770299825 -11.654726215145644 0 0 0
1489 1 -3.7695059628688643 5.604991889764545 -10.633260435930604 0 0 0
1375 1 -5.461868530505651 4.522925516669247 -9.224977809255364 0 0 0
1501 1 -6.0854390590335266 6.702943840168487 -9.330028967301145 0 0 0
1487 1 -4.349663560756255 7.171999500449594 -12.964312103911459 0 0 0
1363 1 -3.0280073632196576 3.3094816567226815 -10.406580547065927 0 0 0
1490 1 -3.9385983489423086 6.728630122279942 -8.332919953955479 0 0 0
1491 1 -3.2231141648878374 4.448337696637818 -8.12518175751066 0 0 0
1387 1 -7.844187030601168 5.556185615255227 -7.912116043333774 0 0 0
1388 1 -7.021765168959822 3.186733089612403 -8.022052533896083 0 0 0
1466 1 1.4081602579908754 2.287949975571994 -10.452242538346418 0 0 0
1351 1 -0.6476928915594264 2.3376186794968454 -11.583117473542982 0 0 0
1476 1 -1.5592691768100995 4.600085560696467 -11.765353220280467 0 0 0
1464 1 0.8757988751227881 3.7485903145207757 -12.928627649075661 0 0 0
1465 1 0.8891221673481127 4.647140331893485 -10.652306862922266 0 0 0
1475 1 -2.123272624256458 6.967237150298562 -12.025390275240932 0 0 0
1592 1 0.0825600404192226 6.8795478502952925 -10.85212315748297 0 0 0
1477 1 -1.5285742999017558 5.5635738272214645 -9.424624257485666 0 0 0
1478 1 -0.7871814697740209 3.231219452504959 -9.323039332536325 0 0 0
1594 1 0.6454864336244466 5.621613964679192 -8.364942636915472 0 0 0
1579 1 2.3530490910999724 5.8898664723428205 -12.055140303519991 0 0 0
1580 1 2.30408663887885 6.838357018080764 -9.723223852057357 0 0 0
1467 1 1.3769061361133161 3.01663086963244 -8.201102505675127 0 0 0
1463 1 0.19684493325434538 5.933306710717641 -13.216651983429308 0 0 0
1581 1 3.1026630356118936 4.522130813910756 -9.518931316963684 0 0 0
1571 1 6.043145875285688 2.0432682655496848 -8.30900629924647 0 0 0
1455 1 3.655736890526015 2.1484800665537627 -9.497951228739407 0 0 0
1557 1 7.727357914298221 2.325101453489527 -11.93734741227812 0 0 0
1453 1 3.113676998552613 3.5643123812984783 -11.829689697996928 0 0 0
1441 1 5.562548548903241 2.4381633836076446 -12.942396359865421 0 0 0
1556 1 7.230759647146538 4.711286018728405 -12.127064881404108 0 0 0
1568 1 4.565257791131543 5.800373091033141 -11.028459466783259 0 0 0
1569 1 5.242794821472174 3.5421055437131734 -10.786367631023328 0 0 0
1675 1 6.331578170635183 7.106684513563515 -12.297734983969303 0 0 0
1677 1 6.928254528363244 5.612391005831821 -9.865279861023033 0 0 0
1558 1 7.603400220559113 3.3624882141020898 -9.730034861308663 0 0 0
1690 1 4.6363328993564785 6.765137429831476 -8.744529444509402 0 0 0
1570 1 5.3823468933126435 4.37913070132463 -8.513772370982165 0 0 0
1567 1 4.973646221284927 4.751298195154806 -13.204829276988672 0 0 0
1664 1 8.549103094771734 6.934357430615336 -11.237643800249995 0 0 0
1566 1 4.218031329471874 7.111142753276955 -13.323377339698038 0 0 0
1655 1 12.3069389013976 2.2086120009353394 -9.895425550092837 0 0 0
1546 1 10.055788007075812 2.1245899010975258 -10.852060105535283 0 0 0
1652 1 10.993182379135334 5.856443745979188 -12.453727485996403 0 0 0
1653 1 11.569424570993743 3.3687145923358592 -12.262693372950707 0 0 0
1654 1 11.538756601146222 4.478940004274911 -9.958411032735018 0 0 0
1665 1 9.225072698698597 4.5752629887651075 -11.044607454882222 0 0 0
1745 1 13.163476864501778 5.731654518880941 -11.395557782927632 0 0 0
1755 1 10.847318591402296 6.821702032454379 -10.280990863650196 0 0 0
1666 1 9.072747424204085 5.56935762042129 -8.89202977668473 0 0 0
1746 1 13.108063207974833 6.742113820555836 -9.168360068524445 0 0 0
1667 1 9.927147020988851 3.169397077432521 -8.438904449034595 0 0 0
51 1 9.38121800545272 3.5520192643516033 -13.369982549676651 0 0 1
1545 1 8.796951467281989 5.958683169545665 13.418434723782328 0 0 -1
1515 1 -8.326511893930252 7.8480299115247085 -8.20538297823715 0 0 0
1397 1 -10.632504356509484 7.926533618131451 -9.25420799395178 0 0 0
1395 1 -11.147642201491395 9.34844992678594 -11.754373952001545 0 0 0
1407 1 -12.841858686936265 8.20370429190509 -10.380479338354085 0 0 0
1512 1 -9.534853703269242 11.689894245605966 -10.756991930293463 0 0 0
1383 1 -8.824400075243197 8.234822724962648 -12.981746569920183 0 0 0
1513 1 -8.877524753217994 9.214070547679391 -10.722693490635276 0 0 0
1525 1 -11.171929232750447 10.455799925068082 -9.520475339374514 0 0 0
1524 1 -9.66448518269452 12.59770799388879 -8.470751418681587 0 0 0
1523 1 -11.897902901786882 11.728213634379223 -11.840092078725785 0 0 0
28 1 -11.927828290880571 12.74032435378599 -9.5411520059135 1 0 1
1514 1 -9.115242600762182 10.104072703406043 -8.44626875765756 0 0 0
1511 1 -9.545040859976014 10.707617963651373 -13.09381617207737 0 0 0
1 1 -13.404290807065252 9.539050045479787 -12.84561141288216 1 0 1
1624 1 -10.218483852441942 13.030985586815419 -13.167074879693965 0 0 0
1408 1 -13.010306401922271 9.11258150487399 -8.148511923636269 0 0 0
1811 1 -13.494919059921537 10.3956854163864 -10.398501712992168 1 0 0
1815 1 -13.691660928958132 11.469377294461914 -8.188890597377497 1 0 0
1625 1 -8.006481116729425 13.010120271104771 -12.08128886431098 0 0 0
1488 1 -4.474783600107498 8.09764002175562 -10.658841984927584 0 0 0
1510 1 -7.340945086481674 11.526706944014222 -9.766007798539526 0 0 0
1498 1 -7.259260221448952 10.556076231321978 -12.002477606267966 0 0 0
1626 1 -5.191101294158811 11.417886549414007 -8.573466987409528 0 0 0
1499 1 -6.625355268614128 8.16513210343069 -11.84109136439388 0 0 0
1615 1 -4.995579094374234 10.56877909335692 -10.880734759797702 0 0 0
1601 1 -3.38734348125144 11.807071036321602 -12.050839893570986 0 0 0
1500 1 -6.7416102935464055 9.095999716228569 -9.562531115755846 0 0 0
1617 1 -4.604007721212492 8.982294401869911 -8.436728582045692 0 0 0
1486 1 -4.982811207102506 9.592631982675524 -13.152074205155655 0 0 0
1721 1 -3.569404168012836 12.833302895496182 -9.856530207932094 0 0 0
1614 1 -5.733288531166684 12.915068680681632 -10.98686487010124 0 0 0
1603 1 -2.839320930560861 10.396938146840707 -9.8043783649298 0 0 0
1602 1 -2.8080303844613894 9.378845185354596 -12.140776126546317 0 0 0
1613 1 -5.502960406750056 11.889623800402365 -13.237022489079559 0 0 0
1593 1 0.006491089708529074 7.908459377475221 -8.745380351203522 0 0 0
1604 1 -2.2249392517113122 7.915428067700056 -9.714254584855757 0 0 0
1591 1 -0.4724107362530088 9.197316259117567 -10.999166845667812 0 0 0
1711 1 -1.1632842892117896 11.545623215962891 -11.128565937395685 0 0 0
1578 1 1.691897046081733 8.3295051300097 -12.143506391749526 0 0 0
1699 1 0.9668543084353907 11.560861893471849 -10.06432938346498 0 0 0
1700 1 1.7599570486832974 9.246743865417923 -9.974717281323652 0 0 0
1713 1 -0.6038808141259082 10.23729295020808 -8.806660799008505 0 0 0
1712 1 -1.4343691241750331 12.617009974397838 -8.792094055034907 0 0 0
443 1 1.1167907841162918 10.633930464283893 -12.414464024712466 0 0 1
444 1 2.5931783138314515 12.825878790418898 -11.419070742328847 0 0 1
1709 1 0.3839424858460738 12.945863597057109 -12.506952487559232 0 0 0
1590 1 -0.4401213552471841 8.213197908903151 -13.363452246796706 0 0 0
544 1 -1.196098409970217 10.66949655274675 13.43516203832039 0 0 0
1687 1 3.349507941351483 10.559701149003917 -11.277560808042782 0 0 0
1788 1 3.1468027433226986 11.382478511515995 -8.97074875087727 0 0 0
1674 1 5.597230374001526 9.39934986677049 -12.359829872572154 0 0 0
1676 1 6.221277089945168 7.97514122785325 -10.042770972743465 0 0 0
1688 1 3.9805295486852756 8.13320531381574 -11.037693635725585 0 0 0
1777 1 5.475266547574154 10.422057878170325 -10.103969546039398 0 0 0
1689 1 3.9338357266633324 9.121267167471768 -8.827919848736602 0 0 0
1767 1 7.8796609120590695 10.333720795323867 -9.050865979777583 0 0 0
230 1 7.170945130011496 11.655139427066022 -11.389182443240703 0 0 1
1775 1 6.995002265231907 12.603638730661011 -9.174606120041382 0 0 0
344 1 4.9458723335672765 11.730289150790316 -12.663985736689503 0 0 1
1766 1 7.842260425174647 9.259847157222723 -11.277330862008897 0 0 0
1698 1 4.739947582361754 12.784346813445762 -10.282739243777371 0 0 0
1768 1 8.581076917177075 7.96761570330149 -8.993562538805898 0 0 0
229 1 8.907526785772621 13.011454513633584 -12.921529559371645 0 0 1
27 1 13.458773467881585 11.770061522598048 -12.946760311068525 0 0 1
1764 1 9.352327171274744 11.4554977024858 -10.49708499098093 0 0 0
1742 1 9.52282992755169 10.483490105714722 -12.61793367507847 0 0 0
1744 1 12.521260564551906 8.117438161840528 -11.634488193759653 0 0 0
1752 1 11.643201963717452 11.568959282269013 -9.40148877656009 0 0 0
1753 1 10.161504422507004 8.189277336091067 -12.6524602446728 0 0 0
1754 1 10.163099389666687 9.173969561933294 -10.378295248410584 0 0 0
1810 1 11.79063071938753 10.455270538491032 -11.651440017302011 0 0 0
1817 1 12.368059477988968 9.170114519734678 -9.280118310793588 0 0 0
129 1 11.056997698675328 12.857381090833567 -11.803361481700271 0 0 1
1813 1 13.3515109265829 12.733269483058379 -10.710289115427262 0 0 0
1765 1 9.229259287770361 12.675709647765238 -8.154247725493718 0 0 0
1827 1 10.173151933274902 10.212755383848616 -8.123497204475484 0 0 0
1756 1 10.738395863270298 7.801859174396942 -7.887696900267159 0 0 0
660 1 -10.31192497489697 14.061198638646626 -10.847075208206268 0 0 1
758 1 -12.673018773427179 14.06091918634882 -12.042965941561627 0 0 1
983 1 -8.123258225790394 13.990231427505726 -9.869080983657778 0 -1 0
1720 1 -4.216677019896002 14.074868826628535 -12.4177119203378 0 0 0
1730 1 -5.961039096107656 13.83764207615198 -8.69857849001981 0 0 0
644 1 -6.357308259055848 14.221467755268776 -13.326579856705358 0 0 1
1697 1 0.18619263888550996 13.876935363230054 -10.238618715741444 0 0 0
1710 1 -1.9292504798949377 14.075120033479891 -11.314914800873323 0 0 0
1786 1 2.473023827981894 13.859333650000607 -9.068918278988864 0 0 0
1763 1 6.4563024255698025 13.977676337722983 -11.730406713114604 0 0 0
1685 1 4.364572095704769 14.102908259469984 -12.70445420178246 0 0 0
1776 1 4.755140661925086 13.706833905738964 -7.970409239574359 0 0 0
1824 1 8.72429781936459 13.82241773312386 -10.55426844287419 0 0 0
1809 1 13.259756892884795 13.77650975788363 -8.453707173629784 0 0 0
1814 1 10.976793859420344 13.889105656361764 -9.440681861057516 0 0 0
19 1 12.816140847233704 14.043153097244488 -13.057153057189925 0 0 1
947 1 -9.031298600430958 -12.1502405530915 -7.789665520754443 0 0 0
959 1 -13.502008717071762 -10.94635767027145 -7.6695723857065055 0 0 0
941 1 -11.422376653009255 -11.093428977906965 -6.588299375073456 0 0 0
1007 1 -11.634593005081909 -10.081559979623005 -4.328411406019869 0 0 0
962 1 -13.113290518063511 -11.436049013332596 -3.0181406861845215 0 0 0
963 1 -12.31885039478711 -13.913820756756856 -2.891373224994867 0 0 0
1850 1 -12.864803875634738 -13.377058082317872 -7.499897926669421 1 1 0
996 1 -9.209164812728124 -11.133805192966165 -5.417289201103008 0 0 0
1867 1 -12.969765977948247 -12.246784707356227 -5.1694160483177605 1 1 0
957 1 -10.79595303242866 -12.527580020354836 -4.12724091154656 0 0 0
956 1 -10.553079636856571 -13.553441323966899 -6.367007423658582 0 0 0
1005 1 -9.577379040042935 -10.177461045165456 -3.1685247740077216 0 0 0
997 1 -8.60136736306587 -12.602132065580943 -3.1703052301559094 0 0 0
1736 1 -8.409059598865811 -13.637401244645776 -5.368836224687016 0 1 0
961 1 -13.772669479906062 -9.903418499823783 -5.3723499800470105 0 0 0
950 1 -8.173391808123704 -14.587285845966164 -7.6653906710407504 0 0 0
968 1 -4.592931036393251 -13.288297755255035 -7.799453548345557 0 0 0
982 1 -7.581804859110676 -9.854688472921843 -6.807288933254333 0 0 0
984 1 -6.841548616677404 -12.351874091714315 -6.649433520340177 0 0 0
986 1 -6.188032786266678 -13.619382914118429 -4.195609620641166 0 0 0
1052 1 -5.332404487078772 -9.947847526539418 -5.763371363553653 0 0 0
1054 1 -4.590103849109495 -12.33964080630359 -5.522032715699219 0 0 0
1066 1 -7.0202612313206485 -11.22650124687792 -4.501249748354541 0 0 0
1055 1 -4.782182016455174 -11.280114515090311 -3.276440338235018 0 0 0
1056 1 -3.9749104596168525 -13.704348121702386 -3.0540006566028524 0 0 0
1039 1 -2.927247493368535 -11.02292913597823 -6.860424425316954 0 0 0
1040 1 -3.0241847356021196 -10.226182442198214 -4.570772671313232 0 0 0
995 1 -7.550506423440987 -10.311238568244356 -2.340251236651355 0 0 0
1064 1 -5.795992067635763 -8.910979404264058 -3.813226161666339 0 0 0
1053 1 -3.9289795546368644 -8.891739451994422 -2.5765376611303825 0 0 0
985 1 -5.935156693380758 -14.622821460852506 -6.488979296747582 0 0 0
1795 1 0.12046342048695102 -14.64843553394368 -7.980125281681982 0 1 0
1042 1 -2.342701482138313 -12.592643067738814 -4.433762565982191 0 0 0
1030 1 -0.6530577440678638 -11.14586217927173 -5.899077416679765 0 0 0
1041 1 -2.1922167999573716 -13.425038946295654 -6.77749830496636 0 0 0
1022 1 1.7463218118437194 -12.206708832645653 -7.007683763680641 0 0 0
1031 1 -0.0692717592344021 -13.485819307398366 -5.692481049507311 0 0 0