LAMMPS data file via write_data, version 2 Aug 2023, timestep = 0, units = metal

1856 atoms
3 atom types

-13.899108170745361 13.899108170745361 xlo xhi
-14.725135153988418 14.725135153988418 ylo yhi
-13.317822279163176 13.317822279163176 zlo zhi

Masses

1 55.847
2 1.008
3 1.008

Atoms # atomic

1385 1 -11.665847952932014 -11.658863710080945 -11.066377520131015 0 0 0
1579 1 -10.356941568829946 -13.870979816677199 -9.82276051714925 0 0 0
1380 1 -9.754541309884058 -11.640796491907569 -9.463603753877143 0 0 0
1382 1 -12.334577072445905 -12.263858917954979 -8.825570007033672 0 0 0
1381 1 -11.630224114123124 -10.083972691459106 -8.549627602792734 0 0 0
1741 1 -9.86572022222639 -12.906854839574812 -12.104633464707224 0 0 0
1810 1 -12.344484489115732 -13.986800750530907 -11.453136570497097 0 1 0
1578 1 -9.055970656522668 -10.602552123398677 -11.727824536196454 0 0 0
1586 1 -13.380815049361647 -11.537290986497077 -12.708132173191755 0 0 0
1582 1 -13.557075538322948 -10.071646727329185 -10.149723791193988 0 0 0
1792 1 -8.498688508497061 -13.732944785124761 -8.309748152473713 0 1 0
1581 1 -12.960771409285515 -9.120904096650735 -12.334069570572156 0 0 0
1580 1 -10.940576060952523 -9.13634920369849 -10.79163173252341 0 0 0
1371 1 -9.111076701157717 -9.227618465505403 -9.161571664514186 0 0 0
1378 1 -7.837541900435583 -12.850947650827045 -10.634638312555605 0 0 0
1367 1 -5.126809265737711 -11.918670884807298 -11.066644379825659 0 0 0
1369 1 -7.238106108074811 -10.512729354456082 -10.15248875709058 0 0 0
1574 1 -3.24560169947471 -13.18538684268689 -11.894644108625673 0 0 0
1376 1 -3.2234876719535883 -11.663891114163096 -9.327981098557274 0 0 0
1377 1 -5.851082842270005 -12.571119814033475 -8.807913756575207 0 0 0
1575 1 -5.969140494252448 -14.14028353197538 -11.40448826005169 0 0 0
1414 1 -3.977168391527112 -14.069901259381387 -9.752601373850169 0 1 0
1370 1 -5.151235157289799 -10.174678700552208 -8.463559412393668 0 0 0
846 1 -7.056627732440683 -11.806775693981816 -12.622238237700017 0 0 1
1567 1 -6.458444853002472 -9.563752402898748 -12.21628225575007 0 0 0
1851 1 -7.891428860181169 -14.106877343453016 -13.165905544169723 0 1 0
1566 1 -4.587430558612402 -9.562324399682865 -10.670612623608497 0 0 0
1379 1 -7.768477682800759 -11.303756950615366 -7.983781814260375 0 0 0
1564 1 -2.7324250175766505 -10.792160000636404 -11.649118858333992 0 0 0
1353 1 -2.5275093531724195 -9.096945179787372 -9.074229891118671 0 0 0
1576 1 -4.597004694540717 -10.959145222475433 -13.236707444826456 0 0 0
1365 1 -1.3708155696481636 -13.05811257928933 -10.319899920794448 0 0 0
1563 1 -0.8131021581380828 -12.008589164347619 -12.508963875984042 0 0 0
1548 1 -0.23969279330687776 -9.672133279838114 -12.156466762621193 0 0 0
1562 1 1.0267673598450902 -12.142308652070279 -10.917734111654918 0 0 0
1351 1 -0.700316555760466 -10.603252756842778 -9.864089923160392 0 0 0
1364 1 0.3784255329267108 -12.926520541128028 -8.623207740721202 0 0 0
1547 1 1.5510907167135812 -9.758957421328002 -10.685403847128999 0 0 0
1363 1 2.354744248779859 -14.421926038652623 -9.64627581496411 0 0 0
1168 1 -2.1793650634236315 -13.975847587842104 -8.235078029286584 0 0 0
1155 1 1.2532263422764682 -10.528625226884795 -8.397588440109946 0 0 0
1760 1 0.4493432881717023 -14.359811810532744 -11.34020653340918 0 1 0
553 1 1.6277084334679621 -11.120549404294776 -13.01986321565494 0 0 1
1839 1 -1.4694615966107527 -14.385468173439753 -12.923441023621097 0 1 0
1157 1 -1.485141191312266 -11.724036791060273 -7.722693346168729 0 0 0
1560 1 2.9595990817575455 -13.468515785347684 -11.853958801456722 0 0 0
1546 1 2.954631680232037 -11.989223858059612 -9.364176419394461 0 0 0
1347 1 4.872179462332756 -13.393322662443902 -10.17864915182311 0 0 0
1525 1 6.194265655753171 -10.085570819592473 -12.01518598529907 0 0 0
1544 1 3.5193379661213235 -11.105296566338538 -11.49411517463821 0 0 0
1545 1 5.4500734928223125 -11.033346624362519 -9.854337384679914 0 0 0
1543 1 7.2925563837450476 -12.396970290244331 -10.601324436838711 0 0 0
1328 1 6.790735748911043 -13.359256401333425 -8.529141936068228 0 0 0
447 1 5.48331162749972 -12.411405269719673 -12.305835313237353 0 0 1
1329 1 7.414342844490307 -11.106076814766544 -8.3064421407196 0 0 0
1330 1 3.5888232951826 -9.689845303095016 -9.055200655229603 0 0 0
1523 1 8.014285115507313 -11.404733178921598 -12.876515155242203 0 0 0
1524 1 8.19740699635853 -9.997094993665383 -10.337469781822524 0 0 0
1151 1 4.188443752502671 -14.328129076668503 -7.85499651954611 0 0 0
1542 1 7.407048574504845 -13.778197868483714 -13.234612397631153 0 0 0
1130 1 8.597633278585988 -14.550202840007668 -9.453429344415571 0 0 0
554 1 6.745695226004184 -14.713494986150646 -11.133479743403566 0 0 1
445 1 4.931658250242986 -14.71132983319411 -12.785997189584187 0 0 1
1348 1 4.821809390640492 -12.009047594101188 -7.609114364495758 0 0 0
1383 1 13.592094034407236 -11.068457956641012 -8.0558789493512 -1 0 0
1520 1 13.718563809882326 -12.392829628594152 -10.703258742716448 0 0 0
1326 1 9.377991883405826 -12.187931720593248 -9.16935832498815 0 0 0
1324 1 9.245378347434148 -13.666935091954235 -11.677160454849025 0 0 0
1498 1 12.222012428109807 -10.373321546645368 -11.884731354874841 0 0 0
1521 1 11.689038883444425 -12.647595452704518 -12.31515559000118 0 0 0
1522 1 11.151434151620755 -13.593690300650412 -10.075338121773635 0 0 0
1541 1 9.885990056355585 -11.337265252631752 -11.351156543729605 0 0 0
1301 1 11.725167253900821 -11.21135792662156 -9.5734199046075 0 0 0
1303 1 9.956255973402804 -9.795249733914453 -8.639230548772304 0 0 0
1323 1 13.107592501690252 -13.440462987842821 -8.443775017205768 0 0 0
1833 1 13.599871251529944 -13.949533110955805 -13.09319750518871 0 1 0
1595 1 10.440383296112355 -14.43157222821448 -7.802789785589254 0 1 0
1556 1 -10.140086004186896 -4.446730862884495 -10.611635886548514 0 0 0
1571 1 -11.384686183157411 -6.826552475534452 -11.563806108859422 0 0 0
1739 1 -9.2886007219108 -5.983301335642558 -12.34208197281168 0 0 0
1740 1 -11.952121819254305 -4.677001376264737 -12.206638469276646 0 0 0
1572 1 -12.347359637156456 -5.343863060263372 -9.505008006032659 0 0 0
1373 1 -11.63950794087066 -7.5233404976609854 -8.919429248786408 0 0 0
1570 1 -9.749661898579163 -6.825931899200489 -9.886378028300053 0 0 0
1573 1 -13.538638945445056 -7.651623701490008 -10.37601405728636 0 0 0
1743 1 -13.429262668827448 -6.933898682226466 -13.112499331379126 0 0 0
1569 1 -8.630664111410592 -8.284758952769618 -11.608800774292419 0 0 0
1359 1 -10.292722552215018 -5.252383199877935 -7.970108908299086 0 0 0
1732 1 -10.014874669786675 -3.575378881352952 -13.164618478983478 0 0 0
1375 1 -13.498518652220923 -8.719112981716483 -7.709839667461135 0 0 0
1555 1 -8.232453841075667 -4.333265000558303 -8.980215470122786 0 0 0
1742 1 -10.697762553728609 -8.329575282570499 -13.15264592367419 0 0 0
1568 1 -6.710151906192454 -8.122014071683413 -10.014972574031967 0 0 0
1552 1 -4.600938373013042 -7.1309064793860495 -10.857288049625407 0 0 0
1554 1 -7.483342075497498 -5.8185543226175245 -10.846914524872036 0 0 0
1729 1 -5.51773299103081 -4.797088326899466 -11.785011384680441 0 0 0
1738 1 -6.7438256933505585 -7.269728289110045 -12.705774770652726 0 0 0
1533 1 -3.561203324557086 -4.752407063536451 -10.10894636424032 0 0 0
1553 1 -5.690261577208577 -5.705051210649112 -9.243980870928677 0 0 0
1356 1 -7.902917628736298 -6.667786415666608 -8.428356312977645 0 0 0
1737 1 -4.153765411777535 -8.425000452503337 -12.925655546951251 0 0 0
1355 1 -4.605997878948781 -7.867238232887159 -8.341482313035911 0 0 0
1698 1 -3.4832403742265896 -4.002239177169214 -12.919793974353304 0 0 0
670 1 -2.7314938877731834 -6.164133991666759 -11.829617062532261 0 0 1
1551 1 -2.270021973073815 -6.82940373227103 -9.238538719467488 0 0 0
1550 1 -2.1847909478933527 -8.410223663226372 -11.300736913964336 0 0 0
1549 1 -0.07774815295423032 -8.241301989989726 -9.628665546025882 0 0 0
1714 1 0.8264585760956233 -4.92371653621429 -11.528287415925604 0 0 0
1532 1 -1.76129030285413 -4.514105032948409 -8.57425021554717 0 0 0
1726 1 2.1585622962257887 -8.645370555058118 -12.989052440771118 0 0 0
1334 1 0.4705058692234978 -5.96859894299566 -9.367246451807926 0 0 0
1727 1 0.04601473079634033 -7.219213854632764 -11.855893419621294 0 0 0
1529 1 2.2944047814490247 -7.440992763728008 -10.288910963126614 0 0 0
1716 1 -1.6144329774986659 -3.7616351685634672 -11.076232875267964 0 0 0
1332 1 1.8781071024882685 -8.196261021547098 -8.00966544071391 0 0 0
1506 1 2.628697816064122 -5.074178256479874 -9.912873249552609 0 0 0
1715 1 -1.0553726915381603 -4.990436347752032 -13.213594258861283 0 0 0
1696 1 2.8454131219992576 -4.044536949550491 -12.649965050997343 0 0 0
1713 1 3.3682498061501853 -6.40042822407076 -12.038408346322022 0 0 0
1527 1 4.041697749964776 -8.74147108231672 -11.260012642651432 0 0 0
1526 1 6.053420098138581 -8.819088318574636 -9.83192690095311 0 0 0
1504 1 5.188873300786124 -6.319237464283038 -10.432771092946888 0 0 0
1712 1 5.997212613174103 -7.685182107020969 -12.364016998048967 0 0 0
1693 1 7.193843899400708 -5.405634170219468 -11.42407703028005 0 0 0
1503 1 6.9326819697484865 -6.33035170437809 -8.771644616499927 0 0 0
1505 1 4.642056151506761 -5.000648310628533 -8.355029866124198 0 0 0
1694 1 5.32298732100233 -5.379166967138051 -12.92565849158532 0 0 0
1482 1 6.681086664573829 -3.9409037161638327 -9.543806224170666 0 0 0
1695 1 4.657268607651243 -3.901082489885461 -10.883624472594915 0 0 0
1502 1 7.884954236690497 -7.641087198727585 -10.819888445389658 0 0 0
1528 1 4.234537832695885 -7.368164321229459 -8.403390875389768 0 0 0
1305 1 7.7595928184224725 -8.580750224648444 -7.958895631098531 0 0 0
352 1 8.032621060792337 -6.697129727537503 13.219959441188164 0 0 0
1711 1 8.586966847090352 -8.984004237432085 -12.631233979476415 0 0 0
1481 1 8.444022594724924 -3.8917718683569813 -7.734146324611196 0 0 0
1670 1 13.783134749889808 -5.434842736949831 -11.219223095442333 0 0 0
1500 1 10.249300456679588 -8.930662034769925 -11.030286058244215 0 0 0
1477 1 13.494823112122585 -6.4448558790503405 -8.493711405275137 0 0 0
1499 1 12.099913838354315 -8.796560097085862 -9.429762367893275 0 0 0
1673 1 9.285632481833783 -4.225127441693045 -12.482448708191411 0 0 0
1480 1 8.997137531760472 -5.233204192195602 -9.688391183871355 0 0 0
1478 1 11.801727247987973 -6.525970397053202 -10.05780529866829 0 0 0
1501 1 9.677013794242193 -7.478646010457399 -9.11488388983145 0 0 0
1671 1 11.92818642458099 -5.443041138826354 -12.718665800784226 0 0 0
1691 1 12.466411873172706 -7.889809652222667 -11.940306844251992 0 0 0
1692 1 9.874381850017354 -6.464016805543418 -11.594853762200353 0 0 0
1455 1 12.851860381468104 -4.129422984753862 -9.221891479424922 0 0 0
1672 1 11.030455716577013 -4.328669675718082 -10.776107005087585 0 0 0
1479 1 10.928101108719837 -5.31511897820258 -8.172066323446899 0 0 0
1558 1 -12.865115858643277 -3.069927578293548 -10.30713557265068 0 0 0
1557 1 -10.923192975404447 -3.07536783147715 -8.736352700054521 0 0 0
1733 1 -10.805185946896305 -2.170782486707754 -11.202910779142577 0 0 0
1735 1 -13.291572118199282 -0.8399764111563819 -11.022639764007568 0 0 0
1722 1 -9.432376345901147 0.2726088159551949 -10.215398589807016 0 0 0
1723 1 -11.337266306094971 0.17591160391950744 -11.873210661103197 0 0 0
1539 1 -11.424540236452875 -0.627979205244996 -9.312069481550214 0 0 0
1831 1 -9.396853878780197 1.243816172535782 -12.936872827063814 0 0 0
1734 1 -12.6210475175702 -2.2922937434150548 -12.808640446154953 0 0 0
1537 1 -8.921870747601815 -1.97806874688278 -9.714764035262128 0 0 0
1559 1 -13.443700441382513 -1.7942461544307378 -8.425028746237949 0 0 0
1516 1 -10.047342270796108 1.6508416429483077 -8.278298623809683 0 0 0
1724 1 -11.885440412950235 1.72032182124223 -10.087698597230442 0 0 0
1721 1 -8.828056982042908 -1.1286762461355533 -12.22294190097914 0 0 0
1794 1 -13.841365227149435 1.515358613181082 -11.570907298691987 1 0 0
1731 1 -8.168968965801895 -3.482931289627464 -11.582878577418189 0 0 0
1535 1 -6.186361010894874 -3.429985461680058 -10.018842647591486 0 0 0
1534 1 -4.388475168964586 -3.2519182269434097 -8.425895417087618 0 0 0
1719 1 -6.156450997918521 -2.486979234699689 -12.628702721021401 0 0 0
1718 1 -4.210362895512496 -2.3187778328374353 -11.020579731350546 0 0 0
1720 1 -6.810034562276532 -1.0111540988202137 -10.743508116891944 0 0 0
1704 1 -7.535281522707475 1.3414395938311365 -11.287481874914606 0 0 0
1702 1 -4.7786124715518685 0.07076268421802823 -11.588069759070706 0 0 0
1703 1 -5.660369543309761 1.415215634926831 -9.686144237668135 0 0 0
1512 1 -4.959472299877438 -0.9065975833052597 -9.01175403747469 0 0 0
1514 1 -7.563639985996133 0.30475642500399047 -8.69332890315346 0 0 0
1490 1 -3.6063133369371343 1.3982756711999151 -8.14275442799142 0 0 0
1536 1 -7.007492925494727 -2.011581817799648 -8.2163249329362 0 0 0
1701 1 -2.8846010115669305 0.0296869939368527 -10.039491879343647 0 0 0
1829 1 -6.749733977349907 -0.11411057112595735 -13.228242941126652 0 0 0
1823 1 -2.8654522292720355 0.8373483048374446 -12.599520211282671 0 0 0
1531 1 0.2890616418189378 -3.4080024601001604 -9.668602695180077 0 0 0
1508 1 2.02503440724662 -3.6234579794669113 -8.054306713007374 0 0 0
1510 1 -2.4704277790732245 -2.181757856749485 -9.399658749006258 0 0 0
1700 1 -2.2547431418215265 -1.4451006808363953 -11.894498447727713 0 0 0
1699 1 -0.4501601946328684 -1.1776668375852726 -10.511342671250917 0 0 0
1681 1 -0.910177062794217 1.1109410962911248 -11.114190925262907 0 0 0
1679 1 1.679208405505772 -0.3046867760692731 -11.452257817761556 0 0 0
1680 1 0.931755236341484 0.9979716548474435 -9.462698555093613 0 0 0
1486 1 1.5127743284556114 -1.1771841899192061 -8.746701686013473 0 0 0
1488 1 -1.019420499296011 0.03138745911515173 -8.514262314587551 0 0 0
1697 1 2.121062712458059 -2.447550647022595 -10.626494971043524 0 0 0
577 1 0.2316200898924734 -2.6420321972691045 -12.402353956696642 0 0 1
1822 1 -0.2923565685151637 -0.3943566003694947 -12.987336716466853 0 0 0
1463 1 2.7643384058608547 1.1262188636380603 -7.7718774793691 0 0 0
1289 1 3.99250096685369 -2.672058642348185 -9.117713997774523 0 0 0
1675 1 6.637461825406238 -2.97927328239372 -12.090416745713116 0 0 0
1812 1 3.715548355103632 0.7699174029176366 -12.283027525115703 0 0 0
1676 1 6.113041001072258 -1.583738803021939 -10.23261922265156 0 0 0
1677 1 4.205948157260458 -1.5961885153107165 -11.68915989863549 0 0 0
1654 1 5.6040195154838095 0.7141170154250371 -10.908731051913966 0 0 0
1678 1 3.5280487343216826 -0.21096287398148128 -9.776145041862275 0 0 0
1653 1 7.4478223581247995 0.7421262237971362 -9.287230053426754 0 0 0
1811 1 6.214594116246079 -0.6258934112946175 -12.697310526604118 0 0 0
1461 1 5.361695070452573 -0.25253495214910515 -8.137530336725249 0 0 0
1459 1 7.991826883679501 -1.5406461529750644 -8.488273283803956 0 0 0
1652 1 8.054368543290789 -0.7168582523706846 -11.119939735553087 0 0 0
1796 1 7.636313806868589 1.6939542574338944 -11.933858337549212 0 0 0
1655 1 4.844303242281839 2.0220913954650044 -8.88770195515402 0 0 0
1627 1 -13.889082451802892 0.5859556617111981 -9.087031532766574 1 0 0
1674 1 8.64010300552627 -3.003815707082927 -10.473706182696144 0 0 0
1648 1 13.15272955648636 -3.1545043082073914 -11.785519074972438 0 0 0
1457 1 10.312332457474788 -2.8603963655822326 -8.799022416529576 0 0 0
1649 1 12.467255051377148 -1.8156251225685676 -10.015963562280785 0 0 0
1650 1 10.637379253847676 -1.8455804361805335 -11.521910530968263 0 0 0
1628 1 11.929513531379264 0.44558014596788276 -10.522943524690445 0 0 0
1651 1 9.88442862636889 -0.5470388859533735 -9.494298302886737 0 0 0
1795 1 10.133991450435133 0.5007472665869077 -12.152489049658891 0 0 0
159 1 12.586545486412707 -0.806869291818737 -12.62323685395062 0 0 1
1630 1 9.347123940593374 1.6817007074573347 -10.152785257728823 0 0 0
1629 1 11.330027981135508 1.9807791868991735 -8.777661499126467 0 0 0
1435 1 11.791054823646459 -0.39399461136941305 -8.0724793359256 0 0 0
160 1 8.756718773542257 -1.956222029713155 -12.970462131017007 0 0 1
70 1 12.096973248061492 1.4715356597699838 -13.244199922641336 0 0 1
1706 1 -9.75934436084627 2.553987948814111 -10.870925544483079 0 0 0
1776 1 -11.779286702544091 2.4805275430157394 -12.571730461316156 1 0 0
1689 1 -11.07714789021082 6.3141308225470745 -9.66878514068068 0 0 0
1708 1 -12.427451312367875 3.939820501030841 -10.516821554280696 0 0 0
1707 1 -10.6270526540804 4.032335267761432 -9.018160560036478 0 0 0
1828 1 -12.794056949666171 6.2978465863559485 -11.373704521449106 0 0 0
809 1 -10.36383333253665 4.873599706241816 -11.499590168253162 0 0 1
1688 1 -9.079821558244557 6.387255848308662 -8.052476722655314 0 0 0
1709 1 -13.2785057228606 5.342954673553674 -8.696149490326153 0 0 0
1826 1 -10.559328772539693 7.280139942804883 -11.925132447500996 0 0 0
1518 1 -12.53613774217342 2.9458979733416797 -8.111042692842702 0 0 0
1687 1 -8.551583335617504 4.98974415349819 -9.939182222686494 0 0 0
1819 1 -8.754234512141995 7.427385973837961 -10.278649229618718 0 0 0
1818 1 -8.571029101993673 5.938198720608813 -12.6547014420357 0 0 0
1827 1 -12.301289967944664 4.830082043624859 -13.17411520958552 0 0 0
1824 1 -5.339588766944621 2.262980578846399 -12.274594428868006 0 0 0
1683 1 -3.4568430792392366 2.334025414547206 -10.697699265393393 0 0 0
1705 1 -8.07688550614276 2.6091323147873986 -9.252647031213773 0 0 0
1825 1 -7.970379892495382 3.7068140633139777 -11.940558598397246 0 0 0
1662 1 -4.719193633869805 6.085714269469431 -9.549386879120242 0 0 0
1685 1 -6.17719723537273 3.7002267360158 -10.19346474874877 0 0 0
1817 1 -6.653986703607805 5.984574110117379 -10.851392904381779 0 0 0
1684 1 -4.2112745998030086 3.6382671746861917 -8.792066672103147 0 0 0
1686 1 -6.72406246038845 5.106361778025818 -8.240829033742328 0 0 0
1814 1 -4.07303900560578 4.740191988624861 -11.269096994399959 0 0 0
1803 1 -4.423588570149212 7.08041128481695 -11.778931972644692 0 0 0
1815 1 -5.871893957447872 4.619040178241896 -12.845073780472305 0 0 0
1664 1 -6.672241873937231 7.549344838144137 -8.71679479983808 0 0 0
1661 1 -2.929247292367993 6.053973536625307 -7.861468810669809 0 0 0
1492 1 -6.1249426441641655 2.710536063987867 -7.677776250890282 0 0 0
1656 1 1.0541051961372254 2.0706132176283703 -12.17115781274897 0 0 0
1802 1 -2.4848304437626183 7.04600436212089 -10.254725227405578 0 0 0
1682 1 -1.5738580393405108 2.442878536233522 -9.172540769205348 0 0 0
598 1 -1.5674949951377446 3.5219914230781484 -11.86589219454074 0 0 1
1658 1 0.3085579401307488 3.4078124260424794 -10.165816829426294 0 0 0
1660 1 -0.23432500955544988 5.687326899387116 -11.006553999225877 0 0 0
1800 1 -2.244567894370327 5.732303526306001 -12.434624000477818 0 0 0
1783 1 1.5988739710682118 5.772698585169724 -9.306779436681612 0 0 0
1799 1 0.6057042349934072 4.317090777620251 -12.780399552930374 0 0 0
1657 1 2.244598822304507 3.395336147366624 -8.540199253248224 0 0 0
1659 1 -2.151731101306229 4.736688715767297 -9.847569074006543 0 0 0
1769 1 2.124589811153758 6.690126085602788 -11.716006062591088 0 0 0
1798 1 2.4815691927013432 4.378172693530107 -11.203745190221209 0 0 0
1638 1 -0.510622020273308 7.201782037008538 -8.489273854924642 0 0 0
1467 1 -0.29736025713113 4.728186845509999 -8.191214150278169 0 0 0
393 1 0.1077393622725662 6.663103335954915 -13.28503504501734 0 0 1
1797 1 2.8667959295081396 2.151901663263512 -10.472527118995249 0 0 0
383 1 3.0670401444215933 2.965756339379517 -13.080795117324003 0 0 1
1781 1 4.979851011901236 3.0870542736049806 -11.661597168422873 0 0 0
1632 1 6.872030381553461 2.9986429479671735 -9.938192850066255 0 0 0
1634 1 4.299605391515055 4.4233681571227415 -9.599045933673155 0 0 0
1616 1 5.814690250909447 6.788155983701532 -8.49946322915404 0 0 0
1782 1 3.9481615311356393 6.911986229388141 -10.033088516011183 0 0 0
1779 1 6.952925360054476 3.942199023490872 -12.484649700276824 0 0 0
280 1 4.342074216430969 5.3359583689214 -12.345133250736291 0 0 1
1780 1 6.227184971756312 5.5149122919731575 -10.608283296245112 0 0 0
1614 1 8.117129259648031 5.601847595470044 -9.108310703152647 0 0 0
190 1 6.465262474157868 6.405133114511816 -13.08731520765931 0 0 1
1633 1 6.213772434082767 4.430297860705647 -8.086656361346165 0 0 0
1765 1 8.519138637151467 6.313581950514273 -11.56445221701298 0 0 0
301 1 4.7285058617354885 7.841127234408567 -12.232158402939296 0 0 1
1631 1 8.757199520984091 3.2925990734210338 -8.311126083474853 0 0 0
1832 1 13.478759081534768 3.701500067305446 -12.232723398861856 -1 0 0
1778 1 8.78056014879995 3.9948975396159447 -10.856937423795845 0 0 0
1762 1 12.743781433018196 5.131892887692981 -10.451293635328252 0 0 0
1610 1 13.31883112985739 2.9225639465303708 -9.735400266985813 0 0 0
1777 1 11.427059888227621 2.7616195102941816 -11.251836798198164 0 0 0
1612 1 10.729105149647179 4.247059379356703 -9.382314663835288 0 0 0
1764 1 10.407258056824471 6.537496360776839 -9.929290525146609 0 0 0
170 1 9.531041705887468 2.7293489173553667 -12.867551100706605 0 0 1
90 1 10.767265802137732 5.066355174731765 -11.86223839090281 0 0 1
1761 1 13.020524578637499 6.036144574026775 -12.931036547997042 0 0 0
1599 1 12.342749866311358 6.552743910923159 -8.329928651287197 0 0 0
1763 1 10.977340484306119 7.615768446372943 -12.083339193177867 0 0 0
1597 1 12.933780962373636 7.488558389315521 -10.468459844280966 0 0 0
1400 1 -13.01247732745298 7.643890926942689 -8.80779465107944 1 0 0
1821 1 -12.358474297230082 8.734408494219373 -10.938696730775163 0 0 0
1666 1 -10.563582207732466 8.757830430293165 -9.41189647887914 0 0 0
1807 1 -9.837197284157435 9.614538018317116 -11.643159775457368 0 0 0
1808 1 -11.643906496141227 11.001364054734363 -10.687477251084857 0 0 0
1809 1 -12.29293697264581 10.063570192248648 -8.309450376427229 0 0 0
1644 1 -9.777160010432087 11.056239664958 -9.044318609390666 0 0 0
1626 1 -9.19957548355941 12.015876742896005 -11.26979411606888 0 0 0
1854 1 -11.093398652726844 11.996984529463983 -12.858004230648959 0 0 0
1646 1 -11.64473967262715 12.346816145937389 -8.143151840962371 0 0 0
1793 1 -13.63526347131943 12.245191324873051 -9.696270006202255 0 0 0
1856 1 -13.598153897664682 10.893369904985061 -12.315640244594483 0 0 0
24 1 -11.731486749632124 9.589677028415046 -13.289227233730555 1 0 1
1584 1 -12.969181991568108 13.219029343277288 -11.87370123441488 0 -1 0
1665 1 -8.523315704019174 8.855294354883394 -7.6369095331007895 0 0 0
1791 1 -10.97780825659813 13.251303919318698 -10.247035570367455 0 0 0
1805 1 -7.993578749258524 8.294812130670856 -12.383755560406511 0 0 0
1806 1 -8.001033214976673 9.795817389287425 -9.865737065188611 0 0 0
1804 1 -6.040758545562103 8.464065126165213 -10.713092592967852 0 0 0
1640 1 -4.164689586148242 8.448988054776233 -9.243882247829387 0 0 0
1788 1 -5.382863703913758 10.846247249690098 -10.574346766330912 0 0 0
1789 1 -7.303474750718127 10.707312799929145 -12.115800279337495 0 0 0
1790 1 -7.29983440401591 12.079297009225463 -9.475793688255045 0 0 0
1787 1 -3.476352781603234 9.332006381219504 -11.53710923317566 0 0 0
1622 1 -3.50520419323505 10.695702838378601 -8.854221306330807 0 0 0
1848 1 -4.755935898095528 11.707732609211561 -12.687434869159004 0 0 0
1642 1 -6.0120811152013705 9.846844817595109 -8.364971586930723 0 0 0
1624 1 -5.297795481433477 12.148092204972134 -7.907555255308753 0 0 0
1849 1 -6.7353076349717576 13.029033817878805 -11.91379558017063 0 0 0
1774 1 -4.60456898661827 13.126352575997597 -10.240894017400077 0 0 0
1852 1 -5.486912778233808 9.390211104627173 -12.955066808124245 0 0 0
1773 1 -2.9413333786441083 11.777087935962417 -11.142006398326748 0 0 0
1623 1 -2.723431011874183 13.015614115603487 -8.507051183384977 0 0 0
1636 1 2.134766450881852 8.206329172396096 -8.888132032148965 0 0 0
1801 1 0.32423230883222054 8.070348985327282 -10.66730804345534 0 0 0
1785 1 0.9399001564360017 10.415903373555714 -10.279482118045944 0 0 0
1772 1 -0.9878774451484862 11.668560778810395 -9.480952897606324 0 0 0
1786 1 -1.7710757135731576 9.350652250727638 -9.841434695414346 0 0 0
414 1 -0.9532307254887176 10.421618330373143 -11.886624276346337 0 0 1
404 1 -1.5477197667342857 8.097812423742056 -12.368195587307374 0 0 1
1620 1 0.19874992378771061 9.576777212694452 -8.20578786216118 0 0 0
1771 1 1.5123197107045439 11.35936292929356 -12.539408020257566 0 0 0
1846 1 0.9545257185938212 8.933645265752435 -12.83350777409601 0 0 0
1842 1 1.432232010727832 12.776109779925118 -10.06303794650077 0 0 0
1843 1 -0.30833618502932225 12.8312956549786 -11.726261214169348 0 0 0
1607 1 0.913727533672084 11.854163768929247 -7.798895360418169 0 0 0
1770 1 2.9144056334185784 10.525600024282003 -8.731263326579583 0 0 0
1768 1 2.8003962810288634 9.003487674492007 -11.259786195841592 0 0 0
1767 1 6.5579420575644285 7.850174069973356 -10.536611131937267 0 0 0
1841 1 3.4625973108441954 11.38309321784513 -10.870883479985844 0 0 0
1756 1 7.308015929242359 10.306571560148654 -10.191592020305762 0 0 0
1605 1 5.36706636756589 11.527641260258793 -9.218824056159896 0 0 0
201 1 5.4611783454139236 10.158082203620278 -11.801858977024633 0 0 1
1838 1 5.974329239739436 12.57201894441366 -11.39722182034236 0 0 0
110 1 8.034531275195217 11.199075260817537 -12.387508007315484 0 0 1
109 1 7.850416093400568 12.586780147470321 -9.715173358286753 0 0 1
100 1 7.169507735278181 8.661806411022205 -12.78604425658232 0 0 1
1618 1 4.738039524004215 9.15968198865459 -9.676666811561317 0 0 0
1603 1 6.589296603785357 9.112168684787111 -8.076646776347445 0 0 0
1606 1 3.516291773262875 12.871227056990904 -8.330367860515985 0 0 0
212 1 4.081584831833222 12.428978394857992 -13.104862153456741 0 0 1
1766 1 8.650985840013561 7.959357738656124 -8.975959155806201 0 0 0
1752 1 13.573391938738382 8.521160591176674 -12.58425796255192 0 0 0
1754 1 9.005974133105532 8.892480768056739 -11.095216936370111 0 0 0
1751 1 13.527407970826143 9.949485523934467 -10.002458007634125 0 0 0
1755 1 9.131036649017911 10.233942141067718 -8.601364449688086 0 0 0
1747 1 9.895166711935936 11.245370738215875 -10.73590141187878 0 0 0
1753 1 11.109508383231208 8.834220641078335 -9.586007240901449 0 0 0
1590 1 11.622586936394232 11.165669189570544 -9.09660823961601 0 0 0
1836 1 11.669851317285705 9.88480055135986 -11.738759616082042 0 0 0
1744 1 12.38148130648819 12.202556382998885 -11.263395953738508 0 0 0
1345 1 9.759559796687917 12.588247012232177 -8.135261873175804 0 -1 0
1837 1 10.367226726440464 12.119803020893045 -12.946054510735479 0 0 0
1598 1 12.840439041556618 8.990625005977094 -7.749315264822866 0 0 0
1840 1 9.845218879526918 9.785540718031694 13.291357617428973 0 0 -1
1645 1 -9.179000137718063 13.340376558057056 -8.584010505689372 0 0 0
1585 1 -12.750360113799397 14.541888033747203 -9.215286636184885 0 -1 0
1583 1 -10.536433407113547 14.184316185795176 -12.42407365944454 0 -1 0
1577 1 -8.643080237962284 14.379021959353164 -10.911072309345355 0 -1 0
1647 1 -11.028262576282568 14.694061295175459 -7.64096544321468 0 0 0
1625 1 -6.670232690660504 14.478478407912416 -9.303948636768983 0 0 0
1844 1 -4.00470111285617 14.040934146346828 -12.371756559109345 0 0 0
1609 1 -2.0919520639983578 14.00661655542594 -10.700989350129447 0 0 0
1608 1 -0.21351261872767502 14.091848803133402 -8.89195476548139 0 0 0
1759 1 2.2119083619173274 13.711961557932852 -12.285819608312467 0 0 0
1757 1 5.907567507691457 13.850710158547958 -8.8429565319648 0 0 0
1596 1 4.13610119102708 13.705031104240323 -10.503113614621963 0 0 0
1749 1 8.563591906960479 13.547919539163296 -12.067058400313062 0 0 0
1748 1 10.48870112826112 13.517577091068556 -10.36540196735195 0 0 0
1746 1 13.11273765378894 14.50236194078639 -10.912754553073478 0 0 0
1834 1 11.08953701823885 14.378862777403654 -12.516736193404991 0 0 0
1587 1 12.381799884427263 13.675344981766777 -8.717981177084237 0 0 0
1182 1 -10.266889556614444 -12.328882703538422 -7.246504273225931 0 0 0
1384 1 -12.85830709530643 -13.477395908381219 -6.7606974400867195 0 0 0
1035 1 -10.9148585664853 -13.341842900359968 -5.213231303828898 0 0 0
1183 1 -12.392231866899351 -11.088427413381222 -6.361788874103796 0 0 0
1174 1 -9.633732488013226 -9.945062131968715 -6.816544586029959 0 0 0
1029 1 -10.421607451305459 -11.00992609472312 -4.733350326313584 0 0 0
1031 1 -12.150371037848398 -9.603579605773817 -3.9194728205570204 0 0 0
1184 1 -13.04291220218337 -11.923965094706322 -4.078570031733507 0 0 0
1034 1 -8.99190974886771 -13.391488391234954 -3.542215404741322 0 0 0
954 1 -11.643703944315973 -14.329505942685095 -2.861802006285032 0 0 0
1036 1 -11.039530079371364 -11.97449926491502 -2.574538227839021 0 0 0
1186 1 -13.535578220735896 -14.261331085712774 -4.507016253327151 0 0 0
1181 1 -8.420789502022089 -12.289917055587473 -5.704573156057431 0 0 0
1433 1 -9.11802193271262 14.683043498431612 -6.108147204301836 0 0 0
1030 1 -10.273294362117836 -9.629302175070283 -2.2131248360439617 0 0 0
1028 1 -8.459637100087761 -10.978954349056304 -3.2015503762802506 0 0 0
1173 1 -7.543835765385489 -9.874513635693715 -5.358730637361452 0 0 0
1172 1 -4.030416683437389 -12.691008782285316 -7.141941141963862 0 0 0
1368 1 -3.2119910816702184 -10.224045999566806 -6.906505617832521 0 0 0
1180 1 -6.720581601200152 -13.716836865498713 -6.748193867289893 0 0 0
1171 1 -5.903402542682786 -11.335050759757655 -6.275808356881477 0 0 0
1027 1 -6.577124770610654 -12.247366595365317 -4.082916135513544 0 0 0
1025 1 -4.730084270282607 -13.573565650899715 -5.0207220773913654 0 0 0
1017 1 -4.018483615138264 -11.18482324073679 -4.67155519111069 0 0 0
1160 1 -5.73464270188761 -9.9341985215596 -3.6497989952143897 0 0 0
1026 1 -4.677325138051652 -12.272914991487848 -2.4932442312223824 0 0 0
1432 1 -7.162008285525587 -14.646586641598775 -4.5301526639931105 0 1 0
1024 1 -2.7777382121081367 -13.49620027542299 -3.423770281008103 0 0 0
1216 1 -5.409519325680641 -14.70420269567878 -2.8557374481894957 0 1 0
1170 1 -2.1649838542853495 -12.562561884026188 -5.472846034825037 0 0 0
1015 1 -2.1197514367908337 -11.113294778409253 -3.0169552214848405 0 0 0
1366 1 0.47548990433771365 -11.491487494127933 -6.194047727339684 0 0 0