LAMMPS data file via write_data, version 29 Sep 2021, timestep = 0

1854 atoms
3 atom types

-14.453944279908104 14.453944279908104 xlo xhi
-14.485567890447935 14.485567890447935 ylo yhi
-12.986139724429114 12.986139724429114 zlo zhi

Masses

1 55.847
2 1.008
3 1.008

Atoms # atomic

659 1 -11.996773771904685 -13.818101752909918 -10.467774700970985 0 1 0
714 1 -12.359189199076603 -11.941018047332017 -11.967084132313472 0 1 1
5 1 -0.03216539945751329 -4.4932730516999175 -4.6538257745714535 0 0 0
117 1 -10.056641850545429 -13.429064638121023 -11.814300098377174 0 0 0
71 1 -8.213117371767334 -13.019374489018219 -10.33758401658395 0 0 0
72 1 -5.9916623290419935 -12.670126068312257 -11.679274739677632 0 0 0
42 1 -4.277149216180213 -12.208942359109477 -10.25839302393063 0 0 0
44 1 -3.6680462178331315 -14.097500264380256 -11.543642862570248 0 0 0
55 1 -3.133815055472338 -11.060413382619728 -0.08439201779967398 0 0 0
1003 1 -1.8277492303329268 -13.49199473542257 -10.003800488952859 0 0 0
43 1 -2.277773064150823 -11.660967246463606 -11.562910814189735 0 0 0
1029 1 -14.27510001100149 -7.400031685360747 -0.9565710882765472 1 0 0
214 1 -13.032373164901905 -9.853742255932623 -10.703612290737707 0 0 0
95 1 -10.58518410975578 -11.3920467107333 -10.491128358525124 0 0 0
215 1 -10.919189947123844 -9.51885389230969 -12.043492128575629 0 0 0
193 1 -9.003718215538637 -9.08358000501958 -10.546073081663529 0 0 0
195 1 -8.384333713929582 -11.04891238066552 -11.72175626235274 0 0 0
70 1 -6.615046691993615 -10.69874508094618 -10.271643771889929 0 0 0
173 1 -4.568335247343576 -10.052945637000555 -11.747645820276624 0 0 0
151 1 -2.6853422199613455 -9.490951473001413 -10.327027396324631 0 0 0
1148 1 -0.4974419088968709 -9.284239209977919 -11.660165613404844 0 0 0
1002 1 -0.36269530124263305 -11.160432846390492 -10.121176864758795 0 0 0
206 1 -13.237371655316515 -7.905256103678698 -12.39652905348608 0 0 0
213 1 -11.39765303397281 -7.4775560990786305 -10.733440583300382 0 0 0
185 1 -9.34781207544182 -7.165220072008287 -12.013359562020014 0 0 0
194 1 -6.925208469560117 -8.684100834635153 -11.812347821386528 0 0 0
162 1 -7.451623456999069 -6.511956336707601 -10.590769505593387 0 0 0
163 1 -5.337050313224999 -6.254320730862215 -11.988045188128366 0 0 0
172 1 -5.017856830701737 -8.044206207316549 -10.382071784379097 0 0 0
141 1 -2.8934120115285342 -7.681346799343076 -11.943001154127698 0 0 0
150 1 -1.0386774639139684 -7.3206390645159996 -10.341631293825756 0 0 0
204 1 -13.79183422935515 -5.919559511411027 -10.938000801878363 0 0 0
203 1 -12.186281358517046 -3.4892962289826173 -11.068812330141922 0 0 0
199 1 -13.919380125973058 -3.8577718016595988 -12.558120130680717 0 0 0
205 1 -11.599792448718844 -5.463058779765955 -12.379710103289026 0 0 0
183 1 -9.786412842594896 -4.933679124643129 -10.804534358095145 0 0 0
177 1 -9.966977224656635 -3.207848293545407 -12.342565959421464 0 0 0
184 1 -7.712504560430147 -4.727476469376068 -12.170849389470847 0 0 0
161 1 -5.762426318264014 -4.177805678022208 -10.725180187597742 0 0 0
139 1 -3.4127834277853957 -5.791180750111758 -10.631681637928494 0 0 0
133 1 -3.5712335158520254 -3.9309115962402963 -12.126058642689529 0 0 0
318 1 -1.362556924262483 -5.420156172678837 -11.810676157749745 0 0 1
138 1 -1.799820148268072 -3.3928463440586807 -10.358874246094542 0 0 0
198 1 -12.126571326852563 -1.5329811713536827 -12.439475227235107 0 0 0
152 1 -8.491729945156703 -0.8607096486129944 -12.38605272364555 0 0 0
154 1 -8.200228401882617 -2.6639706070832716 -10.96827748760824 0 0 0
155 1 -6.105764005846888 -2.367663857824013 -12.20651357765908 0 0 0
557 1 -6.65619733573887 -0.23591597018259414 -10.953338423555016 0 0 0
131 1 -4.162196139285774 -1.800208662428437 -10.732618481117171 0 0 0
1406 1 -0.3399193896747974 -0.8538961480559291 -10.564682883984872 0 0 0
132 1 -2.0950081755223646 -1.6495184171377506 -12.056737498775004 0 0 0
115 1 -12.328044267151384 -13.751467485385836 -7.721382945789643 0 0 0
111 1 -14.179965133485751 -14.155706460503183 -9.192172997426663 0 0 0
110 1 -12.659803044976066 -11.752172624727688 -9.108473374336628 0 0 0
216 1 -10.212712338693844 -13.23621355303903 -8.89422248645031 0 0 0
79 1 -8.394712080158719 -12.793116860424696 -7.420220529597202 0 0 0
81 1 -6.303031466845564 -12.505987522882423 -8.765382161437127 0 0 0
575 1 -5.95371505054484 -14.41921249746629 -7.305342205463939 0 1 0
54 1 -3.926244524454191 -13.945613554756852 -8.731374648747668 0 0 0
40 1 -4.385031948904556 -11.810630340269157 -7.365470039873915 0 0 0
26 1 -2.2025042876601173 -13.379773613955749 -7.188168254390183 0 0 0
539 1 -6.941893670593441 -0.16479559915352837 -8.18768570049555 0 0 0
212 1 -13.224750088084148 -9.561731602047345 -7.897525960766815 0 0 0
94 1 -10.903695340788136 -11.24252068927808 -7.571293512558589 0 0 0
93 1 -11.065105250328866 -9.302149922901895 -9.29054295999529 0 0 0
67 1 -8.676414609381911 -10.947291790038136 -8.898378106587339 0 0 0
69 1 -6.873909688828474 -10.55488350479031 -7.438184383458408 0 0 0
41 1 -4.693405377931853 -9.997183399427412 -8.982944715638745 0 0 0
17 1 -2.9851568163330953 -9.433407605490107 -7.504950837980334 0 0 0
19 1 -2.4348817912734937 -11.499494673684662 -8.772106253480896 0 0 0
1005 1 -0.6472864131420426 -11.055519660284592 -7.276751906561469 0 0 0
18 1 -0.8735824743624381 -9.221584125274351 -8.687528330178509 0 0 0
218 1 -13.478338854088634 -7.762313370492773 -9.546541063062282 0 0 0
210 1 -13.571463282305704 -7.593200097245751 -6.628131004710544 0 0 0
211 1 -11.652083903634846 -7.321906854201127 -7.969942191718971 0 0 0
191 1 -9.165521229620511 -8.874198108991617 -7.7520625331296715 0 0 0
192 1 -9.494037117498898 -6.918167811090791 -9.306746700005899 0 0 0
171 1 -7.092494081988249 -8.540160395895548 -9.11330505632688 0 0 0
169 1 -7.592044859815386 -6.412299572892536 -7.880682075865903 0 0 0
170 1 -5.452639787531796 -6.097908060638185 -9.018796720720506 0 0 0
39 1 -5.324500107947104 -8.050081033690649 -7.571158370737401 0 0 0
149 1 -3.1773116688843057 -7.493764163602695 -8.892248493983146 0 0 0
16 1 -1.409537119053768 -7.201843704079115 -7.386038071026786 0 0 0
1020 1 -14.251096222519303 -3.8400703213635072 -9.659988251321122 1 0 0
202 1 -13.966188684718325 -5.772639647212939 -8.147854001473927 0 0 0
201 1 -12.269659306662323 -3.343099189931209 -8.20208831342017 0 0 0
181 1 -11.878196767939357 -5.3738388126151655 -9.422550747871014 0 0 0
209 1 -12.082398992938282 -5.304247664517728 -6.657241225264288 0 0 0
190 1 -10.003516845693497 -4.765881841098524 -7.9528931400275615 0 0 0
182 1 -10.220619096989417 -2.9097883685300463 -9.646940076536056 0 0 0
160 1 -7.887366310089531 -4.405310409719119 -9.318300244685764 0 0 0
168 1 -6.202216132533087 -3.8816504378422074 -7.787710199454627 0 0 0
148 1 -3.5547581624213187 -5.533364395450505 -7.688137565991577 0 0 0
137 1 -3.940847929082393 -3.6600606771284827 -9.099185717813214 0 0 0
125 1 -1.6120668709068315 -5.373639512354188 -9.003879919824927 0 0 0
123 1 -2.0706271627205055 -3.1391424769743814 -7.721929969785033 0 0 0
175 1 -12.425781520816024 -1.3605662748845333 -9.73689541807053 0 0 0
174 1 -12.894259588411154 -1.2623011356968377 -6.879027723085673 0 0 0
153 1 -8.760629195625611 -0.6481273645436563 -9.586873629511254 0 0 0
156 1 -10.574998707456782 -2.881373697511993 -6.6459993489399 0 0 0
180 1 -10.822332120707902 -0.9248843364523402 -8.025659837771443 0 0 0
157 1 -8.98566863103745 -0.34629419754186586 -6.729335603871011 0 0 0
158 1 -8.4093380104452 -2.3866109235535973 -8.04304132182996 0 0 0
159 1 -6.26299569313184 -2.1657838157943985 -9.471476896529767 0 0 0
135 1 -6.623828484660515 -1.9423717129880043 -6.527572606984035 0 0 0
114 1 -14.40007048263488 -13.907373606191822 -6.211289992153785 0 0 0
136 1 -4.5295682447133405 -1.5296504191301725 -7.822521420537673 0 0 0
522 1 -0.5376523948998138 -0.8393609555596733 -7.767350231932994 0 0 0
120 1 -2.4287868995564637 -1.3442050526785483 -9.242117109738182 0 0 0
102 1 -12.697470425812071 -13.481118263613991 -4.744698962599115 0 0 0
1 1 -2.79389763838555 -2.82881876319275 -1.9588037856567553 0 0 0
103 1 -10.655128241995609 -13.12212459925069 -6.115044173039509 0 0 0
100 1 -10.755216101701311 -13.01120199308754 -3.299524035630931 0 0 0
107 1 -8.632426193543631 -12.662787350724074 -4.610802155826102 0 0 0
51 1 -6.586788471626663 -12.283833196781467 -5.882602981474658 0 0 0
85 1 -6.267153795541244 -14.21540103210167 -4.424892291625294 0 0 0
52 1 -4.193635025411215 -13.7500513939814 -5.801310931309887 0 0 0
23 1 -4.785759305942461 -11.735137200583843 -4.432251080203098 0 0 0
1008 1 -0.35588522914571463 -12.987068985670577 -5.6695488164577945 0 0 0
60 1 -2.3802020807292337 -13.155259095852973 -4.4219846499897475 0 0 0
92 1 -13.061107970399155 -11.592638197467268 -6.246948165472791 0 0 0
90 1 -13.283851803684698 -9.321763693756644 -5.017140052120225 0 0 0
77 1 -13.149046525684593 -11.356402676990957 -3.5890953591992734 0 0 0
99 1 -11.620117878420695 -8.965061922964216 -3.4986641152887827 0 0 0
91 1 -11.122970452031417 -8.991343747497265 -6.393669711913035 0 0 0
38 1 -8.966048906180031 -10.672367278376894 -6.135102659402314 0 0 0
76 1 -11.03800296591934 -10.93349704616304 -4.6858852843100305 0 0 0
48 1 -9.122129077450317 -10.547169241916823 -3.2300974202640216 0 0 0
50 1 -7.25633575721402 -10.210333299207019 -4.519088734369577 0 0 0
68 1 -4.96159393219239 -9.827083322249429 -5.976452310192292 0 0 0
977 1 -3.1516032290036584 -9.23772901634742 -4.600955682123892 0 0 0
25 1 -2.7130303739140285 -11.312183013685829 -5.760315602250846 0 0 0
986 1 -0.8084416709426492 -10.911526633069979 -4.343588722048338 0 0 0
1143 1 -1.117931466245924 -9.010927182388258 -5.879616968951406 0 0 0
89 1 -11.747488388925868 -7.086946944744564 -5.0659919322696 0 0 0
1026 1 -13.886160375252544 -7.362636091410604 -3.6608108902730354 1 0 0
65 1 -9.492826739094756 -8.641359819901876 -4.885440664482857 0 0 0
189 1 -9.680597342814355 -6.8811212812460605 -6.541387406048703 0 0 0
64 1 -10.062848647602898 -6.673120411282678 -3.501526989177691 0 0 0
66 1 -7.374535684308129 -8.249050884121797 -6.232866686219932 0 0 0
37 1 -7.997211320835351 -6.212779771571563 -4.978765327059854 0 0 0
34 1 -7.697569599388745 -8.15907580004995 -3.4193058701690173 0 0 0
147 1 -5.752303981604385 -5.853533362276011 -6.35724916974986 0 0 0
36 1 -5.5325556410203 -7.919223328383538 -4.703161967217566 0 0 0
15 1 -3.54470527189153 -7.340407081119571 -6.0042154150119496 0 0 0
6 1 -1.5092260718416455 -7.063024107751776 -4.561040561113149 0 0 0
187 1 -12.384467432111924 -4.953020823536358 -3.801343756832935 0 0 0
179 1 -12.65344691403137 -3.1710878221956804 -5.324528100509442 0 0 0
1013 1 -14.15198892069619 -5.522376356672176 -5.229412406377459 1 0 0
188 1 -10.157164655486953 -4.739254775106566 -5.283551691904495 0 0 0
167 1 -8.122113059565235 -4.428983280290964 -6.590666937146668 0 0 0
35 1 -6.115520781705214 -5.705729893228321 -3.363154453959339 0 0 0
165 1 -8.558375479977464 -4.15039619717747 -3.6148337679829883 0 0 0
145 1 -6.431567601825661 -3.8521151533827993 -4.9980152374813605 0 0 0
146 1 -4.218672429132939 -3.5317662446571596 -6.390903916207129 0 0 0
14 1 -3.948065983429382 -5.4510848357327415 -4.7328570575029705 0 0 0
12 1 -4.540650367936781 -3.35969744800855 -3.437699820417601 0 0 0
130 1 -1.8649367922800781 -5.048927934049058 -6.09374526737869 0 0 0
4 1 -2.0565289839504644 -4.941535796298753 -3.286922181080305 0 0 0
200 1 -13.238327665043563 -1.0291730501696374 -4.11908530313708 0 0 0
226 1 -10.841557930935096 -2.6322286426026267 -3.924961029741784 0 0 0
178 1 -11.129488958139213 -0.7215243406397462 -5.473472433670439 0 0 0
686 1 -9.235519988887695 -0.3104031723581997 -3.9367849178767482 0 0 0
166 1 -8.675981350998414 -2.2853936553836967 -5.124629212006342 0 0 0
143 1 -6.877608286561993 -1.7280310587796173 -3.6796879385370804 0 0 0
144 1 -4.761258490132061 -1.581875289151096 -4.998959065483399 0 0 0
126 1 -2.958233678122337 -0.9270305876155494 -3.5562325171453306 0 0 0
128 1 -2.4199771899483817 -3.0169544596235127 -4.807263883459807 0 0 0
122 1 -2.651461414054813 -1.0995064415085007 -6.461363090554381 0 0 0
129 1 -0.2818331492133055 -2.7119045958041568 -6.158042525439978 0 0 0
127 1 -0.9409351570666882 -0.5796764525423281 -4.779505965868118 0 0 0
3 1 -0.6513128347644326 -2.4534251233283193 -3.265755480318372 0 0 0
113 1 -12.961709557427852 -13.280139767572047 -1.9009811529471214 0 0 0
84 1 -8.938790981237872 -12.43567927610025 -1.8343739334739322 0 0 0
403 1 -11.053987883235965 -12.750145037627163 -0.380126012872152 0 0 0
1058 1 -13.95516744107805 -14.246595132858172 -11.941234219881846 1 0 0
606 1 -8.671650252986261 -14.314123177094162 -0.260221888052488 0 1 0
78 1 -6.747314649414025 -12.185549229873757 -3.103050145926 0 0 0
58 1 -6.577489881152142 -13.97243317254197 -1.5503844668663174 0 0 0
74 1 -7.141179952585028 -11.737923083613232 -0.2553300161571048 0 0 0
59 1 -4.402292790713362 -13.7285668571165 -2.89909471519206 0 0 0
225 1 -9.542718851851113 -0.1062333154156736 -1.2276831677698645 0 0 0
29 1 -2.688040341574352 -13.040592168541119 -1.3633515369186018 0 0 0
30 1 -0.5242565752550821 -12.779705042388946 -2.791066714669469 0 0 0
116 1 -13.498568046716306 -11.045095011669117 -0.7818436024418638 0 0 0
88 1 -11.993358983342947 -8.93826290102525 -0.7434136998287908 0 0 0
101 1 -11.15059330617601 -11.009201021968577 -1.9344314304038175 0 0 0
46 1 -9.522934153958715 -10.317702648037073 -0.4642594969964282 0 0 0
56 1 -7.434344227007728 -10.015616075234309 -1.7415923213827593 0 0 0
7 1 -0.16526554556463502 -6.1650775618137 -0.09230274601906707 0 0 0
57 1 -4.977675001891443 -11.600396290814562 -1.619587646632116 0 0 0
49 1 -5.3164114439751025 -9.68763465406384 -3.0945887715808773 0 0 0
233 1 -5.513677646481993 -9.44683753347919 -0.2632572261582595 0 0 0
21 1 -3.5259421265000856 -9.049445274052395 -1.5531157088600533 0 0 0
24 1 -2.8528237032922483 -11.183510925119913 -2.9166771777255125 0 0 0
28 1 -1.0903510302141264 -10.64619363453173 -1.4741536206402355 0 0 0
22 1 -1.391137346000729 -8.857366432697507 -3.002323634604224 0 0 0
118 1 -0.8192262479810886 -2.3083940540440473 -0.5137858286263342 0 0 0
63 1 -12.200127936306044 -6.851655463149768 -2.2419953558435033 0 0 0
75 1 -9.779807407665203 -8.486196787075944 -1.9579420818802955 0 0 0
359 1 -10.408611705599764 -6.450568458098843 -0.5751358413289651 0 0 0
405 1 -7.9332022316136035 -7.96898791374484 -0.49218549983552684 0 0 0
73 1 -8.329362399104225 -6.013051074370125 -2.078609886270506 0 0 0
47 1 -5.899867415578802 -7.570003533854358 -1.8806691303740664 0 0 0
13 1 -3.793163083054031 -7.252827149420465 -3.2142436347628767 0 0 0
45 1 -3.927623167183226 -6.986939419281636 -0.32585747129069276 0 0 0
535 1 -4.513893131841288 -0.009100822540089482 -12.263829324713218 0 0 0
20 1 -1.9566830164231046 -6.66504491571005 -1.684138547641199 0 0 0
62 1 -12.743314767397681 -4.88263994041518 -1.002057383474778 0 0 0
1012 1 -12.95299222805408 -2.9711483589360004 -2.4613315813193886 1 0 0
186 1 -10.62660391848728 -4.604477303099651 -2.2731028021808246 0 0 0
361 1 -8.689919907259183 -4.040149267894137 -0.7852982562592228 0 0 0
407 1 -6.450203373887062 -5.5521007769469435 -0.599610511010102 0 0 0
33 1 -6.731775226720064 -3.5865896674221105 -2.11838471148163 0 0 0
11 1 -4.310016095238952 -5.221740528963442 -1.845948785285353 0 0 0
409 1 -4.87219441358879 -3.1377305534546114 -0.47202335872688295 0 0 0
2 1 -2.529091647274889 -4.657061340880981 -0.37998023087526 0 0 0
240 1 -0.3353739792752588 -4.486597711100346 -1.7453767650502936 0 0 0
1009 1 -13.49388618246521 -0.9046001643953563 -1.1172587241875256 1 0 0
119 1 -1.2418679090715248 -0.38649181808602684 -1.8972309532031026 0 0 0
230 1 -11.038718066863819 -2.52024365326778 -1.019880527239426 0 0 0
222 1 -9.036775228476255 -2.0685451805742794 -2.293708261591526 0 0 0
227 1 -11.508715173007158 -0.6397372755291073 -2.503664701687102 0 0 0
164 1 -7.10644386734742 -1.6589076323018723 -0.8381005951193483 0 0 0
622 1 -3.2393680572403785 -0.7729579859061495 -0.5973560849262949 0 0 0
10 1 -5.004110800676957 -1.2812076838264037 -2.152866921076404 0 0 0
332 1 -1.5490232606471857 -13.728623052643917 -12.888642290747873 0 0 1
1157 1 -14.276330236624997 -1.8231577265750794 -11.207961421079542 1 0 0
1011 1 -14.415599678906757 -3.6891209626746093 -6.78665425454561 1 0 0
27 1 -0.7367048499579489 -12.672848922226258 -0.008180290719653982 0 0 0
83 1 -13.15304625777266 -13.056624104681033 0.8089797137853267 0 0 0
1395 1 -11.370396104635846 -12.68770095303653 2.495118844027811 1 0 0
232 1 -9.122706821682973 -12.168452816955117 1.0749441176935246 0 0 0
231 1 -9.073688521463914 -14.074460061497371 2.695949489834513 0 0 0
243 1 -6.995529172993882 -13.77121989271236 1.2540140974039726 0 0 0
285 1 -5.080423772191153 -13.292306556451681 2.7706047571236194 0 0 0
287 1 -2.9159458173880264 -12.899172750355584 1.5677859468210258 0 0 0
288 1 -1.093283745869801 -12.49112554842984 2.8652051245532792 0 0 0
236 1 -1.6126201472405643 -8.566103078762843 0.1120101078330471 0 0 0
888 1 -12.250599873612424 -0.07482290715964623 6.056037550532649 0 0 0
97 1 -13.794705983752904 -10.952017270616949 2.2124105277625787 0 0 0
1177 1 -14.016270790669088 -9.172689329878725 0.6879116742999933 1 0 0
640 1 -11.704206581691414 -10.730084646161869 0.9824450344703877 0 1 0
424 1 -9.815068575032942 -10.128521636493486 2.412781741613456 0 0 0
244 1 -7.398397403071013 -11.696387182478976 2.67863269858168 0 0 0
366 1 -7.792154366764346 -9.726255694752357 1.0582397013372802 0 0 0
245 1 -5.915841581895105 -9.331050289430626 2.695886738923983 0 0 0
235 1 -5.475512298955897 -11.34045370961693 1.3601786059860324 0 0 0
296 1 -3.4546887039147673 -10.885170123437224 2.711045244280884 0 0 0
234 1 -3.7770357872109397 -8.979457730506788 1.1675873864611148 0 0 0
289 1 -1.3769056038125047 -10.456206743051435 1.5170601454902481 0 0 0
416 1 -12.046977250061785 -8.610506685356896 2.220071169707218 0 0 0
360 1 -12.521763107607832 -6.762339178574737 0.6633822843279802 0 0 0
82 1 -10.066111606149628 -8.39592590401509 0.8527519553343801 0 0 0
362 1 -10.548373565703226 -6.214788294396268 2.1255954517954656 0 0 0
404 1 -8.202855004535413 -7.751411203505149 2.3550906327089898 0 0 0
406 1 -6.12449046242439 -7.331647489218206 1.0168790724022099 0 0 0
417 1 -8.521476586388603 -5.812333450853728 0.7992641886626064 0 0 0
247 1 -4.229124160853887 -6.899434046149065 2.584209795474692 0 0 0
237 1 -1.9346443297698617 -8.486308502348958 2.674366350445437 0 0 0
238 1 -2.240500174473725 -6.503002159571131 1.2253017678107199 0 0 0
298 1 -0.331069245544235 -5.9852760275420955 2.587624903218895 0 0 0
334 1 -12.906226461663959 -4.67306655236359 1.9202790837521153 0 0 0
223 1 -10.813783937035364 -4.4229418250480546 0.5383096829671903 0 0 0
370 1 -9.094005835631975 -3.7638885414836754 2.0745396048094076 0 0 0
418 1 -6.748810937971628 -5.386817192294483 2.34485407292161 0 0 0
363 1 -6.89505849920235 -3.4815596255498544 0.8242700687182261 0 0 0
408 1 -4.732634817934523 -4.921677208689195 1.0458184834968893 0 0 0
420 1 -5.103465028620247 -2.8514877784106627 2.3577213045875656 0 0 0
249 1 -2.732676557196461 -4.425352661934436 2.600570648754532 0 0 0
239 1 -0.8118938917687846 -4.228774785168499 1.075359467972337 0 0 0
335 1 -13.099026928458626 -2.8358519440378522 0.37291030095897426 0 0 0
228 1 -13.638401510544512 -0.8696785188382439 1.6753523431259882 0 0 0
229 1 -11.474428775174186 -0.4293877213084478 0.32996198419810696 0 0 0
810 1 -11.849803462781605 -0.22561135897537454 3.2655510777234387 0 0 0
338 1 -13.369621898111605 -2.594482761664903 3.3036473104938135 0 0 0
340 1 -11.349343361240969 -2.404035663075115 1.953729116732017 0 0 0
336 1 -9.333424214338 -1.9750031795492493 0.5560979648350823 0 0 0
364 1 -7.458957600891782 -1.3660221508883517 2.069506622309339 0 0 0
411 1 -5.4258805388765925 -1.0401121132358941 0.6904795570193869 0 0 0
422 1 -3.5781542068705523 -0.5324139264428922 2.164538116092002 0 0 0
410 1 -3.024531338502115 -2.5852170636105285 0.9073179393433737 0 0 0
1631 1 -1.4895244980448954 -0.32159167818504386 0.9000830009353962 0 0 0
251 1 -1.250883234332873 -2.1210668960059245 2.4449277595663776 0 0 0
1162 1 -13.558279389452126 -12.829352968555156 3.7531188829398 1 0 0
413 1 -11.625092366652435 -12.382420725500094 5.339742391591367 0 0 0
252 1 -9.208939193592318 -13.970140994691086 5.6367251995878735 0 0 0
414 1 -9.483296786518949 -12.093591886748122 4.03163850449158 0 0 0
400 1 -6.496831366710565 -0.4061603303228374 12.202299707545317 0 0 0
242 1 -7.147095162904033 -13.612944327766726 4.120149199817982 0 0 0
299 1 -5.286184561151346 -13.171853302460235 5.660498607221248 0 0 0
292 1 -3.245486454548619 -12.801942805706252 4.271727403479053 0 0 0
294 1 -1.3025392240406628 -12.203094542799551 5.798634355200493 0 0 0
322 1 -0.8168635421015491 -14.347712260166828 4.419751909227829 0 0 0
1163 1 -13.898141712614917 -10.856138118927362 5.252050949364888 1 0 0
426 1 -11.820070598736109 -10.475401996320489 3.740339880586946 0 0 0
375 1 -14.210859976764771 -9.016256918111933 3.6097321465139363 0 0 0
428 1 -9.985336235746805 -10.051175643644893 5.2585973556983685 0 0 0
254 1 -7.586783717469109 -11.585991643620371 5.523656684580443 0 0 0
415 1 -8.017058202881735 -9.703131523330349 4.0200844162986 0 0 0
257 1 -6.019415145637813 -9.309939747039783 5.5930780238056865 0 0 0
256 1 -5.625779318303971 -11.239082968744965 4.052832282299937 0 0 0
301 1 -3.7094458204105685 -10.677788284892532 5.5720590265291765 0 0 0
246 1 -4.112825551680849 -8.707728212640252 4.121377883762845 0 0 0
295 1 -1.5898031277250144 -10.39241596272653 4.29661799635768 0 0 0
365 1 -12.445439264078109 -8.47969754012242 5.088128679023908 0 0 0
337 1 -12.584576314718683 -6.585460612468894 3.508689897683846 0 0 0
342 1 -12.835961003392182 -6.373444430143566 6.341388087728854 0 0 0
367 1 -10.27466652851638 -8.01905054937907 3.6941142174085737 0 0 0
377 1 -10.826812172089076 -6.043483036272162 5.008893712961958 0 0 0
369 1 -8.421491426853683 -7.657264718223812 5.190240637867328 0 0 0
258 1 -6.4543917059834595 -7.223605317257244 3.917226887482487 0 0 0
368 1 -8.73857870283024 -5.636748090893496 3.657810488275425 0 0 0
431 1 -4.40890273823989 -6.655393807597454 5.400211256440668 0 0 0
248 1 -2.2729297509258117 -6.400714845981597 4.018440838258874 0 0 0
303 1 -2.122587209735867 -8.2944186753693 5.627808309038526 0 0 0
305 1 -0.6452135828046792 -5.782212212315038 5.61680754459328 0 0 0
343 1 -13.109241835050042 -4.494266772360744 4.85986723077537 0 0 0
344 1 -11.416137492695201 -3.993968444663654 6.4383980946682495 0 0 0
339 1 -11.025470102201997 -4.256036628449488 3.50309931370626 0 0 0
379 1 -9.314454003177849 -3.603705140250808 5.090707815809244 0 0 0
371 1 -7.223309353135678 -3.298370290245076 3.598866839557738 0 0 0
430 1 -6.816056100612636 -5.208552073840904 5.053158790079918 0 0 0
419 1 -4.744955444208431 -4.855512136579499 3.8569210728840684 0 0 0
260 1 -3.0691220396790193 -4.255021920704799 5.424383123358128 0 0 0
250 1 -0.8442687188833471 -4.078577395538506 3.971846192073267 0 0 0
398 1 -7.8507740697879065 -2.8817443260788433 12.214644141805119 0 0 0
893 1 -13.961110979253819 -0.5386957248079067 4.662184798468703 0 0 0
350 1 -13.659748836056279 -2.5792821586902424 6.272653560343491 0 0 0
341 1 -11.620392270853422 -2.2107257064609325 4.774330677549385 0 0 0
372 1 -9.62690976054677 -1.6777345114063813 3.5343346198896253 0 0 0
346 1 -9.741438676089183 -1.5889577424256434 6.1941713853471025 0 0 0
381 1 -7.77052066940978 -1.131329449534574 5.016280748729004 0 0 0
382 1 -5.996584228617163 -0.7339531168615565 6.407778966533472 0 0 0
432 1 -5.456634167245335 -2.738165571945622 5.1421385658017424 0 0 0
373 1 -5.73125068595909 -0.9167422823884177 3.5971189126712257 0 0 0
421 1 -3.3611260803518377 -2.4166276882280435 3.773865324353613 0 0 0
434 1 -3.8546007161064946 -0.35219749606570794 5.081043922241841 0 0 0
262 1 -1.5402681428512768 -1.8786474820406465 5.375172822284396 0 0 0
459 1 -4.327925544623765 -0.08499430040378364 10.889861354900015 0 0 0
412 1 -13.677968874584051 -12.731336523465488 6.772431267818122 0 0 0
437 1 -11.881817264795153 -12.196708747838864 8.306401014103171 0 0 0
1394 1 -13.993482506111086 -12.643124303974764 9.58338885984202 1 0 0
436 1 -11.516534731674275 -14.119919278809915 9.666033606390767 0 0 0
710 1 -11.407549326841945 -14.274539118012619 6.877868641383918 0 1 0
425 1 -9.725323410578387 -11.931053764828102 6.871228985268081 0 0 0
263 1 -9.41686459407173 -13.812930319827272 8.45295604530322 0 0 0
438 1 -9.951669789319702 -11.68567220137539 9.744492176955054 0 0 0
253 1 -7.263772854061211 -13.438625723114448 7.171876648114976 0 0 0
458 1 -4.0061016200613295 -2.0180333683623832 12.443243530332724 0 0 0
306 1 -5.578706919384805 -13.044613312754752 8.659110285710971 0 0 0
300 1 -3.40914946494731 -12.47484522158614 7.124865203387243 0 0 0
328 1 -1.5746010720513013 -12.00274731413125 8.683249050531726 0 0 0
325 1 -1.1037223885163119 -14.102574056837742 7.332477391996649 0 0 0
374 1 -11.996051317844373 -10.408454361518602 6.6555964294801395 0 0 0
1161 1 -14.194862877226148 -10.723256773555097 7.965535710110446 1 0 0
383 1 -12.52144277762229 -10.074734503940823 9.521228460214632 0 0 0
439 1 -10.245167225963886 -9.958322822002913 8.180038699896025 0 0 0
265 1 -7.925532463527261 -11.440202977453792 8.348474857247806 0 0 0
427 1 -8.091449373628041 -9.536712326182245 6.852783761236401 0 0 0
267 1 -6.271503754438507 -8.985510881678564 8.345281221821642 0 0 0
440 1 -8.380433728191615 -9.223170691064164 9.645520130632617 0 0 0
255 1 -5.623632596154298 -11.013548258495073 7.168083811718349 0 0 0
269 1 -4.117865995356345 -8.561634212078921 7.012909308954088 0 0 0
302 1 -1.9507599902029806 -10.145626816776542 7.209589316350231 0 0 0
297 1 -0.12794334980895172 -7.816162124594986 4.158331594618145 0 0 0
384 1 -12.593071201042571 -8.270451302198241 7.834612943425276 0 0 0
347 1 -13.182809790021413 -6.268256376908321 9.24745066179055 0 0 0
376 1 -10.49902035785393 -8.06816985721642 6.582542177326575 0 0 0
385 1 -10.956260284427925 -7.807969118195107 9.468451602887738 0 0 0
386 1 -11.013731458927413 -5.9040828041091125 7.9597546800165535 0 0 0
441 1 -8.645076144472744 -7.415692324690076 8.026457839673322 0 0 0
429 1 -6.525958411892861 -7.167812079284948 6.6951461150008935 0 0 0
268 1 -4.842336955419139 -6.6360282098251675 8.334298212179595 0 0 0
259 1 -2.587052917974411 -6.220443359717352 6.952206945552385 0 0 0
304 1 -0.21307367007094946 -7.575549999073347 7.091138413895026 0 0 0
310 1 -2.3036826625347704 -7.987882610845679 8.417892474673183 0 0 0
348 1 -13.343040402532845 -4.4185162047265845 7.803274950737245 0 0 0
349 1 -11.556409380837309 -3.608503819415846 9.343321002402844 0 0 0
378 1 -8.941272380249604 -5.581525820762845 6.456553496694719 0 0 0
388 1 -9.420405179767275 -3.6493545558815867 7.859666279968698 0 0 0
387 1 -9.258037264966195 -5.507413879286064 9.368215581519978 0 0 0
380 1 -7.436227164885219 -3.267060438818051 6.462172804659273 0 0 0
443 1 -7.219705458579629 -5.081435872916353 7.961911661827402 0 0 0
389 1 -7.631265063361882 -3.028284414033619 9.381609888174443 0 0 0
271 1 -5.238021985408286 -4.682711897965097 6.662408835281079 0 0 0
270 1 -3.174167987873197 -4.137508996859003 8.20667920214146 0 0 0
444 1 -5.329903359617187 -4.523751748803537 9.596426637171485 0 0 0
261 1 -0.6801113933568814 -5.604975145029801 8.405009561986395 0 0 0
272 1 -1.148381396689592 -3.762246983052002 6.825987038329769 0 0 0
882 1 -14.357987829011517 -0.41361953617189506 7.472844781707144 0 0 0
1185 1 -13.988218547814077 -2.3054349367273 9.059537041669136 1 0 0
883 1 -11.865122652392039 -1.9301232010490654 7.696557547563616 0 0 0
399 1 -8.217203930698217 -1.0499638514804914 10.700633335945527 0 0 0
351 1 -10.064441309154056 -1.4936841774468554 9.136640661801541 0 0 0
390 1 -8.049476250916577 -1.0801134136670267 7.799515212226451 0 0 0
391 1 -6.1186942428696405 -0.6373450808517678 9.317358381201187 0 0 0
447 1 -4.064545631726681 -0.25516580876313455 7.928534824865833 0 0 0
445 1 -5.614516096876127 -2.6470154749696793 7.9532818182963165 0 0 0
433 1 -3.642079009857918 -2.178151836020916 6.578472898759367 0 0 0
446 1 -3.8036956681665135 -2.0635421837552634 9.464306174439189 0 0 0
273 1 -1.728983164099505 -1.642862388559987 8.127326692617801 0 0 0
449 1 -12.059566640375637 -11.976810913944366 11.091766192881765 0 0 0
448 1 -11.859189956540904 -13.879504773816363 12.569100981128122 0 0 0
1389 1 -14.330003563762958 -12.386193453135123 12.377222000196843 1 0 0
293 1 -2.903107371882909 -14.432217782269227 6.001704505541296 0 0 0
274 1 -9.679363918010132 -13.652065922838444 11.252178024220173 0 0 0
264 1 -7.607795877672418 -13.360325169178553 9.982485287891473 0 0 0
96 1 -7.933815794895386 -12.991930973002834 12.768692521593406 0 0 -1
313 1 -5.836984008558698 -12.871012937326347 11.44408426543462 0 0 0
314 1 -3.9776565324982087 -12.131384945395926 12.803543754247508 0 0 0
307 1 -3.625047675478122 -12.173072140353268 9.86936357308734 0 0 0
844 1 -3.4037531368207077 -14.097443140273427 11.561159781956098 0 1 0
842 1 -1.408213025124228 -13.852686770111106 10.154207219360005 0 1 0
309 1 -1.8778985233905203 -11.840606595078 11.668901183398662 0 0 0
392 1 -12.686320356570347 -10.039887757913172 12.36131426066225 0 0 0
450 1 -10.320189682850758 -11.504792995907216 12.400251441734847 0 0 0
451 1 -10.54406824663426 -9.552223804187594 10.936815029545665 0 0 0
452 1 -8.704889723751506 -9.163329726430124 12.480186329093035 0 0 0
277 1 -6.329006597692143 -10.760885835450907 12.83725639863359 0 0 0
276 1 -8.085756554930754 -11.17766170361455 11.1215008512757 0 0 0
266 1 -6.061146758390889 -10.988139755289172 9.927480635947012 0 0 0
279 1 -6.592171058485875 -8.910077235711272 11.190433192692664 0 0 0
316 1 -2.547671804013948 -9.749118028665535 12.862980050733976 0 0 0
308 1 -2.2053031699142114 -9.878650448406974 9.80600645555747 0 0 0
333 1 -0.3457463360744999 -9.555574915634146 11.56327485537386 0 0 0