LAMMPS data file via write_data, version 2 Aug 2023, timestep = 0, units = metal

1863 atoms
3 atom types

-13.534966941437325 13.534966941437325 xlo xhi
-15.207655418688466 15.207655418688466 ylo yhi
-13.294443756737245 13.294443756737245 zlo zhi

Masses

1 55.847
2 1.008
3 1.008

Atoms # atomic

568 1 -10.895457200206636 -13.830550811060732 -11.698288526722429 0 1 0
994 1 -12.827879449947565 -14.826274412587233 -10.69527487352706 1 0 0
101 1 -8.087061210295946 -13.666350518241845 -10.51495952609308 0 0 0
174 1 -8.87915545374296 -12.851383696092169 -12.683630578634151 0 0 0
80 1 -7.04233911462626 -14.51590927919811 -13.226908218116689 0 0 0
81 1 -4.418746271274593 -14.317090739042662 -11.946265325558926 0 0 0
114 1 -6.262349632492192 -12.564314226950142 -11.478069987245668 0 0 0
104 1 -3.4925436893633055 -12.667343219552215 -10.427759863474916 0 0 0
534 1 -1.5734702106963159 -14.35799083538736 -10.894605491701366 0 1 0
82 1 -2.3620913468827283 -13.269471871566 -12.960626374626713 0 0 0
172 1 -12.770392079322075 -12.053164688743236 -11.16356077371021 0 0 0
162 1 -10.84166666197494 -11.058633284772728 -12.148796524547734 0 0 0
228 1 -12.757671093003752 -9.28943496060293 -11.72502866059012 0 0 0
221 1 -10.056471972836105 -9.344378333164086 -10.438986494535072 0 0 0
163 1 -8.24304564417378 -10.859586254867718 -11.001229849244824 0 0 0
175 1 -8.830410087842314 -10.00076416196994 -13.072356881758145 0 0 0
115 1 -4.333317697357087 -11.46132176207658 -12.520020461764311 0 0 0
333 1 -6.315077674371125 -9.71651930511019 -11.927464507195028 0 0 1
77 1 -3.567916130500066 -9.772297355978168 -10.81678653509604 0 0 0
76 1 -1.672071979750081 -11.573346543194473 -11.34558611102485 0 0 0
313 1 -12.68217306019639 -6.395596695280107 -12.068148680829347 0 0 1
229 1 -10.774736285500946 -8.215560537726397 -12.579358280197058 0 0 0
220 1 -11.95369763797871 -7.547662792549033 -10.082111988418514 0 0 0
166 1 -10.04663426850359 -6.305707122575942 -11.021509630978477 0 0 0
164 1 -8.148239518143132 -7.99885157745543 -11.410158677583437 0 0 0
105 1 -5.488516956652962 -8.32365560520361 -10.211925493677224 0 0 0
118 1 -6.2029691632046715 -7.04462935743806 -12.340433807058208 0 0 0
116 1 -4.47715515350863 -8.727819217400084 -12.80512717555468 0 0 0
117 1 -3.588849928883981 -7.040124746152088 -11.204788549385334 0 0 0
79 1 -1.5974374897624255 -8.779769530439479 -11.829015655385032 0 0 0
108 1 -0.7442727172356456 -6.9417740245784465 -10.278193664085466 0 0 0
32 1 -12.868608263831023 -3.5732444889824286 -12.65932298244092 0 0 0
222 1 -11.916077897700259 -4.7161092889728575 -10.45651972247726 0 0 0
231 1 -10.815416002524234 -5.231236462986502 -12.973731878969087 0 0 0
31 1 -9.98423780565944 -3.6797603945192545 -11.367178035906008 0 0 0
233 1 -8.038432953204188 -5.305252716786173 -11.905616820249467 0 0 0
225 1 -7.241980349322493 -3.7184033737113555 -10.196901993617079 0 0 0
167 1 -5.500735778496548 -5.370333054637326 -10.698712729326171 0 0 0
235 1 -6.121730775702718 -4.157899363331168 -12.785542090319842 0 0 1
169 1 -3.409336370714243 -4.309904161578071 -11.529986694492894 0 0 0
759 1 -1.4161660963888902 -0.12922650741851882 -13.100308405010086 0 0 1
119 1 -1.5744204146531207 -5.789501210531315 -12.223474017567353 0 0 0
109 1 -0.852447161253421 -4.063730436610024 -10.691545655568548 0 0 0
10 1 -11.94377573751439 -1.9958319417847932 -10.972172747618341 0 0 0
1254 1 -12.758420007054845 -0.7834200780012832 -12.998102865382474 1 0 1
30 1 -9.996728214491856 -0.8454159032906912 -11.73463588350987 0 0 0
29 1 -8.059893145356856 -2.6007952471373184 -12.262770057772512 0 0 0
226 1 -7.275809605727229 -0.7977049997280297 -10.679802372584664 0 0 0
168 1 -5.288957286214064 -2.6454594111438308 -11.144657469134668 0 0 0
618 1 -3.425361633085714 -1.3236169148230452 -12.2915795686524 0 0 0
170 1 -1.5039364725338924 -3.0039763582800703 -12.77519613911811 0 0 0
3 1 -0.5899390572215282 -1.3387483852396809 -11.076302684368718 0 0 0
159 1 -2.5086034967087603 -2.4982671119656548 -10.080264758685681 0 0 0
241 1 -4.248875608350378 -5.925196267925411 -13.270620008622318 0 0 1
149 1 -12.007206667461517 -13.256026752357329 -9.089690529931705 0 0 0
138 1 -11.196460275159358 -14.401905134589573 -7.086920614343704 0 0 0
207 1 -13.128978914572151 -12.6584518365617 -6.589440675908586 0 0 0
111 1 -10.021474221837192 -14.881939963158015 -9.595723088365467 0 0 0
150 1 -9.266789488046319 -13.226589034125361 -7.841473625139859 0 0 0
595 1 -7.36123878023851 -14.849725357919672 -8.55867685098766 0 1 0
94 1 -6.594974096490482 -13.08900287454427 -6.88071900387671 0 0 0
102 1 -5.5286480748335 -13.769288327622293 -9.45475977105583 0 0 0
95 1 -4.650350039725897 -14.89259425608426 -7.359124918393649 0 0 0
96 1 -4.6375904476342455 -12.128982144929108 -7.929032335987545 0 0 0
72 1 -2.7519127484056725 -13.870737927190135 -8.494364593717869 0 0 0
73 1 -0.8194505396864891 -12.572063328136164 -9.414555515747466 0 0 0
161 1 -10.145977568419836 -12.177866036618656 -10.070940881657217 0 0 0
209 1 -11.247020766778787 -11.61154496202693 -7.49663756245005 0 0 0
219 1 -12.013685078607795 -10.34560646459396 -9.51986236470165 0 0 0
208 1 -13.124668431278469 -9.73683663454893 -7.127387148961502 0 0 0
152 1 -7.327795571743429 -12.02335001080133 -8.971827991616216 0 0 0
151 1 -9.284073777167153 -10.479750513719841 -8.436224928458369 0 0 0
153 1 -7.376024419565601 -9.378788226846098 -9.312744694551899 0 0 0
103 1 -5.316345832347402 -10.952490061959761 -9.862873937450386 0 0 0
142 1 -6.461626424493553 -10.419908178585189 -7.141218351184887 0 0 0
154 1 -4.674737173859244 -9.26998215189898 -8.197955599377437 0 0 0
106 1 -0.788141115339851 -9.817581024050687 -9.703153248301627 0 0 0
98 1 -2.618311238256389 -10.981506517797149 -8.763838956368804 0 0 0
145 1 -1.9042981404987263 -9.244827236639395 -7.1681945320174005 0 0 0
97 1 -1.7161175945261853 -12.110710770913418 -6.726894353359741 0 0 0
982 1 -13.528674811314422 -10.94451424317168 -13.259531488800052 1 0 0
210 1 -11.247460055430528 -8.696422732772438 -7.83912931174469 0 0 0
46 1 -13.128248161903837 -7.040548307931775 -7.4781175012840855 0 0 0
165 1 -7.2849115461134835 -6.454470207465151 -9.847965632020435 0 0 0
212 1 -9.253263117023518 -7.449034873825509 -8.841205721180517 0 0 0
211 1 -8.501608599102294 -8.662293114850963 -6.819453005829915 0 0 0
213 1 -6.5963197537707785 -7.4626379205827265 -7.701990713666347 0 0 0
155 1 -4.707915119756938 -6.515345868343568 -8.781574506653103 0 0 0
156 1 -2.8368374306900783 -8.192539408384764 -9.190074371954513 0 0 0
100 1 -1.8970959695922502 -6.615081776747594 -7.546692984987244 0 0 0
127 1 -1.027972306929433 -2.889653393212452 -1.782298122974053 0 0 0
38 1 -11.18370148846186 -5.915211831271002 -8.417361682561143 0 0 0
36 1 -12.981154059442423 -4.089979332332263 -7.776045286720116 0 0 0
42 1 -10.279514480803348 -4.0426476922096874 -6.899271276897619 0 0 0
37 1 -11.095883269787405 -3.0169529228914183 -8.866436880680535 0 0 0
43 1 -8.424403254737895 -5.809546192139081 -7.170574147181044 0 0 0
223 1 -9.171722779654928 -4.708996667384703 -9.27885923333071 0 0 0
214 1 -6.523266843550331 -4.691736491623818 -8.100346243563838 0 0 0
157 1 -4.491909425719816 -3.633323511856826 -9.112676841910483 0 0 0
146 1 -3.6514605531150206 -4.752056428438294 -7.207077393071407 0 0 0
107 1 -2.6691018925376575 -5.473891440262012 -9.622492568680954 0 0 0
158 1 -1.8048768979390797 -3.661865016919153 -8.058691085930773 0 0 0
679 1 -11.187424782540452 -0.1083091412312367 -9.139856497510246 0 0 0
1000 1 -13.105554197192701 -1.405106494847713 -8.324277723662075 1 0 0
12 1 -10.372541846350849 -1.3418120349252423 -7.216424541387784 0 0 0
224 1 -8.486629844004598 -2.900143090322988 -7.70302452713673 0 0 0
35 1 -9.12293536600198 -1.8987896069669965 -9.768007545190903 0 0 0
1133 1 -0.09653931374234404 -8.792968638409945 -3.444549793788463 0 0 0
216 1 -6.4209046223967885 -1.9685379633645006 -8.597335842906883 0 0 0
227 1 -4.423955187612968 -0.8296808992914446 -9.614293162623913 0 0 0
217 1 -3.6499550696359524 -1.8741171026992873 -7.594665410489243 0 0 0
39 1 -5.579550780964632 -0.28606690317598726 -6.956312517732261 0 0 0
5 1 -1.6984163575553044 -0.7242806443456278 -8.471636426894841 0 0 0
592 1 -12.626852529484644 -13.507541591008362 -4.384931209680197 0 1 0
197 1 -10.67310515613823 -12.565615110401282 -5.41525176264023 0 0 0
1080 1 -0.28602024330603903 -1.1638728545235413 -0.10186886286751218 0 0 0
129 1 -8.497248197049942 -14.861877786503475 -3.569632653107398 0 0 0
139 1 -8.276554048568709 -14.44217737446991 -5.8698059351880945 0 0 0
130 1 -8.017456943286312 -12.576597702109021 -4.376785506398072 0 0 0
88 1 -5.6925640340971295 -14.204493415295314 -4.907279571640187 0 0 0
90 1 -3.6302239674832073 -13.355560089653045 -5.877955029620058 0 0 0
512 1 -2.658813345251577 -14.659058851899264 -3.8575227974848083 0 1 0
69 1 -0.8811321479602405 -13.285239792495176 -4.771087136881725 0 0 0
70 1 -1.6946655796672268 -15.032300383310014 -6.443882340328789 0 0 0
196 1 -12.441691345058167 -10.954962790486283 -4.902144628065303 0 0 0
198 1 -10.504931047142062 -9.813783132741317 -5.7933110704313355 0 0 0
186 1 -9.975582562566974 -10.73174596145976 -3.6474380904105175 0 0 0
140 1 -8.587340720917592 -11.49890354496552 -6.345956857699669 0 0 0
199 1 -7.763321165228167 -9.815210691407561 -4.840901139725128 0 0 0
141 1 -5.555170179948786 -11.732179609998731 -5.199381001606218 0 0 0
132 1 -5.005359710045857 -9.876719315122735 -3.5685404759679695 0 0 0
143 1 -3.77744000490892 -10.424491154667328 -6.221378560782942 0 0 0
133 1 -2.739960257166155 -11.737130395421946 -4.228837844868359 0 0 0
92 1 -0.8858432638607017 -10.404649310763226 -5.211175986070424 0 0 0
47 1 -12.350085740449257 -8.058398249466713 -5.256108321617587 0 0 0
55 1 -11.666663134244533 -6.39172364869137 -3.5240363393520173 0 0 0
45 1 -10.370493188520367 -6.824416525798469 -6.231726023007616 0 0 0
54 1 -9.775498284982124 -8.016986905134425 -4.251567975224324 0 0 0
200 1 -7.698814875723599 -6.8354383603376565 -5.092520780334727 0 0 0
144 1 -4.026160984807113 -7.488705318389949 -6.685743186934049 0 0 0
201 1 -5.837408746472185 -8.555053680225646 -5.560921865214473 0 0 0
190 1 -4.874960509975665 -7.043333475406712 -4.013632871591815 0 0 0
134 1 -2.9587698546745465 -8.782213915715598 -4.752216688315968 0 0 0
136 1 -1.025765591219221 -7.641083600185245 -5.540147562219517 0 0 0
203 1 -2.888882031770679 -6.003665496208782 -5.047195290904931 0 0 0
1863 1 -2.70906304269368 -1.3107171918388651 -1.3948824529640653 0 0 0
17 1 -12.268496061696323 -5.227426860331155 -5.796314848088625 0 0 0
22 1 -11.493300924680174 -3.5517747560560853 -4.074802666218718 0 0 0
53 1 -9.749056248625749 -5.127869731206326 -4.614610932913653 0 0 0
51 1 -7.626026815166758 -4.1251651951345885 -5.591783605132126 0 0 0
52 1 -7.031722016778882 -5.244998526253809 -3.4134410556627 0 0 0
202 1 -5.690322288504494 -5.8560376592305765 -6.1449331173283674 0 0 0
50 1 -4.7626690787737385 -4.341832125099074 -4.555715523813497 0 0 0
215 1 -5.66875331042082 -3.033134901187129 -6.578692159177071 0 0 0
147 1 -0.8281337348790867 -4.869345337089737 -5.916418034368049 0 0 0
1140 1 -1.803585329316105 -4.508375173835878 -3.5443631076666087 0 0 0
205 1 -2.8752882105852144 -3.1871212352121034 -5.569258468754751 0 0 0
44 1 -12.252884107127464 -2.5442879870430843 -6.185374354542741 0 0 0
7 1 -11.6496814928001 -0.727210111819133 -4.647922169584772 0 0 0
19 1 -9.529555609343664 -2.4830303241060356 -5.145619709953314 0 0 0
41 1 -7.446341367227871 -1.2634167222718524 -6.049723592862355 0 0 0
665 1 -8.842823560586325 -0.6255058547321202 -3.641066474426042 0 0 0
18 1 -6.758112061414223 -2.5461651087744333 -3.9181985164184088 0 0 0
204 1 -4.682320186014977 -1.4412057575246244 -4.864220965087238 0 0 0
1075 1 -0.8570862803332222 -2.029530743175769 -6.540486887186069 0 0 0
137 1 -1.760915319359599 -1.759939220945915 -3.9139215029388907 0 0 0
148 1 -2.611817686964928 -0.494133893621024 -5.84020064275645 0 0 0
192 1 -5.310855346681157 -1.4649921299743376 -2.327994001969495 0 0 0
591 1 -12.212151141308535 -14.758398695828127 -2.224867409779039 0 1 0
120 1 -11.60845632617846 -12.994373238651809 -0.6563968521563996 0 0 0
183 1 -10.154055645519653 -13.251616388741121 -3.1641265765196014 0 0 0
121 1 -9.871397170988816 -14.484634168642298 -1.0137590191353052 0 0 0
83 1 -8.019169657005548 -13.11876275259369 -1.9303337808953511 0 0 0
89 1 -4.31383768130063 -13.201449899171944 -3.2624050474420727 0 0 0
1 1 -5.386558632108679 -12.811547547484922 -0.7602058941866527 0 0 0
579 1 -6.2625696831884445 -14.449875525263858 -2.480462504121551 0 1 0
546 1 -3.686214484000546 -14.315329493214412 -1.2589273182317609 0 1 0
84 1 -1.8309869213302754 -12.993760621798094 -2.2479585137020788 0 0 0
540 1 -1.0542504778227872 -14.183108954032331 -0.06092736924830611 0 1 0
234 1 -6.145712967667175 -1.4188843746788162 -13.12757429149024 0 0 0
128 1 -10.881548740786295 -15.04086477107378 -4.880046780215885 0 0 0
184 1 -12.027126721097527 -11.943923466755221 -2.7970529544983815 0 0 0
65 1 -11.452097905292199 -10.179108723182564 -1.0059854670425832 0 0 0
56 1 -11.81346518908402 -9.117098059537444 -3.300825639398232 0 0 0
459 1 -7.280296487513344 -11.346343099986868 -0.25909498149979626 0 0 0
185 1 -9.719636881599099 -11.452224517706354 -1.4340589692427912 0 0 0
187 1 -7.806887099808602 -10.304463641490095 -2.4253238139452282 0 0 0
131 1 -6.200121507894353 -11.836825976688269 -2.9567121486824757 0 0 0
123 1 -5.394919648740224 -9.853405752461915 -1.1768356081611913 0 0 0
85 1 -3.694251411215733 -11.444572903155866 -1.7595131842372833 0 0 0
91 1 -1.876265221182301 -10.145091009656038 -2.6149169033266 0 0 0
86 1 -0.975738106245851 -11.305171885417248 -0.6062589261288682 0 0 0
181 1 -4.489327615100542 -2.5400770226218015 -0.19877676005790157 0 0 0
64 1 -11.241358689771124 -7.23507598302466 -1.4814141726771233 0 0 0
1171 1 -13.17706982062118 -8.537515189547427 -0.6854078836240483 1 0 0
424 1 -9.096538285076289 -6.919830296217805 -0.06639832858813044 0 0 0
63 1 -9.532376703755888 -8.881491330672539 -1.8587934431345747 0 0 0
188 1 -7.195581099871691 -8.017613443305217 -3.0559904646615834 0 0 0
176 1 -7.271017478878216 -8.404247358221937 -0.5295610196296181 0 0 0
62 1 -9.18318217581361 -6.224971111206294 -2.544021501355827 0 0 0
177 1 -5.513114674715128 -7.123614874426227 -1.62410104946194 0 0 0
189 1 -3.619492864695811 -8.608098797414206 -2.0305561108385355 0 0 0
135 1 -1.95048087830415 -7.326382600281943 -3.048796628935028 0 0 0
87 1 -0.9132201461356466 -8.405467861187411 -0.836600538110174 0 0 0
125 1 -2.853630366790739 -6.939470822268257 -0.34025448843900463 0 0 0
28 1 -13.064435899053155 -5.5957711987766015 -0.9364735021418742 0 0 0
27 1 -11.062379623010123 -4.559717700122754 -1.7497258773620636 0 0 0
61 1 -7.173314304009202 -5.650869088683065 -0.8154059719386151 0 0 0
20 1 -8.938344205840872 -3.3672226479106317 -3.040323511034046 0 0 0
59 1 -9.076805575177438 -4.328986689009 -0.5341133383945209 0 0 0
193 1 -3.5692112491003023 -3.0312738660018024 -3.0432165783145795 0 0 0
179 1 -5.2327979642207065 -4.203730475043173 -1.9230055021482002 0 0 0
191 1 -3.5932574131464374 -5.829922502719189 -2.3863914418728633 0 0 0
126 1 -1.051575469275047 -5.702641071004942 -1.3248456294957798 0 0 0
180 1 -2.844828343480291 -4.06473189921193 -0.7850625664157072 0 0 0
425 1 -10.690022890565391 -2.698490163990545 -0.34819699253457337 0 0 0
9 1 -12.993484092566742 -2.9883951363581627 -1.4920072660993995 0 0 0
8 1 -10.866404285741316 -1.8396272796174067 -2.5549723244169513 0 0 0
626 1 -12.959051815069806 -0.03489402780583717 -1.8536639450549277 0 0 0
60 1 -7.20777437752139 -3.064129342359861 -1.4371020739842422 0 0 0
25 1 -8.882679159202972 -1.4754900836602989 -1.2126449086164541 0 0 0
34 1 -8.321301511146286 -0.13709558276018363 -7.9822528823975505 0 0 0
448 1 -13.255335391606682 -11.425364949102295 -0.20316734460941177 0 0 0
194 1 -3.491994669328358 -0.031213480018685402 -3.322054005920773 0 0 0
21 1 -13.474887598564875 -1.9377641774006413 -3.556919004241891 0 0 0
956 1 -13.43378098558471 -4.623218695260478 -3.1111709616295293 1 0 0
58 1 -7.003709867598316 -0.10703361380495302 -2.0419897089333396 0 0 0
124 1 -2.830995666444853 -9.85703903069589 -0.011138156855118098 0 0 0
1137 1 -0.06510932006832171 -5.427123295234562 -8.509012557168855 0 0 0
1422 1 -0.001522690416562611 -14.504733800010055 -2.7421510219218685 0 1 0
446 1 -10.818342502832559 -13.932350933315837 1.4572474632692938 0 0 0
447 1 -12.63505627138619 -12.485433739060937 2.0355838615842234 0 0 0
1170 1 -13.509660323800846 -14.152764490033622 0.2842919978424252 1 0 0
758 1 -4.2247115270313795 -0.38208377048344033 12.467655669089432 0 0 0
463 1 -8.455501409552518 -13.622761376110178 2.715552071693317 0 0 0
465 1 -9.11208941005691 -12.683925490128383 0.5692064348395629 0 0 0
122 1 -7.282661496304641 -14.040315693853778 0.14100678702869018 0 0 0
315 1 -4.963942620812018 -2.0372113534172023 10.804193021906489 0 0 0
457 1 -6.494337209735006 -12.356866149625272 1.8566772329127108 0 0 0
920 1 -4.842672443511425 -14.000775742972282 1.290382267606022 0 1 0
299 1 -4.025069512550829 -12.219762681548431 3.1530143177078074 0 0 0
744 1 -2.337375123171242 -13.819798496370591 2.6280660106262825 0 1 0
302 1 -2.8428770927244944 -12.709297529506758 0.42741589721478057 0 0 0
1200 1 -0.43193289990260375 -12.5568602619731 1.666747209164626 0 0 0
445 1 -10.1877317230335 -12.12471395894402 3.2167398731488603 0 0 0
438 1 -10.904897581500723 -11.253936225352508 1.0259823067062435 0 0 0
439 1 -12.60705872091934 -9.698113886212584 1.6574258929692718 0 0 0
437 1 -10.155044574485444 -9.433615797594562 2.7321296062362315 0 0 0
436 1 -8.365623324450844 -10.918503505614721 2.190090293676386 0 0 0
460 1 -9.061799942780382 -9.860648192678664 0.2333018787707939 0 0 0
458 1 -6.575110360550702 -9.635686695279361 1.4787396235163541 0 0 0
303 1 -4.720485123547839 -11.129705396752907 0.8777585555870822 0 0 0
456 1 -3.931380656428278 -9.388447001580744 2.702930645622869 0 0 0
297 1 -2.2224562446746248 -10.95386065080831 2.0323298715625473 0 0 0
1157 1 -0.2981995211399493 -9.640630046842169 1.2024267176124326 0 0 0
431 1 -10.867478179542038 -8.386508576193561 0.6122782174373924 0 0 0
432 1 -12.521378657328032 -6.897416131292394 1.2117920877143114 0 0 0
392 1 -11.918878417748717 -7.7921216581878605 3.260671846227403 0 0 0
430 1 -10.079032276992763 -6.547061980514645 2.399366735825046 0 0 0
429 1 -8.357799693710373 -8.167052878911814 2.063622415410139 0 0 0
455 1 -6.2915518063260745 -6.799992213954564 1.143473546123925 0 0 0
427 1 -5.783732357414531 -7.901073462975652 3.084707764672011 0 0 0
453 1 -3.8061668769294386 -6.64092631703412 2.140911065597999 0 0 0
454 1 -4.638677355788502 -8.300012342307692 0.6472684236498765 0 0 0
178 1 -2.0709638596621947 -8.071199279220771 1.6921844241238198 0 0 0
1211 1 -0.30129910597539755 -6.706847397113975 0.8456914185984594 0 0 0
386 1 -12.54118933954069 -3.998132021528601 0.6578672611484695 0 0 0
384 1 -11.84392580374034 -4.987052001489177 2.8190397257206072 0 0 0
26 1 -10.831196239427669 -5.575485663336805 0.4108398700121043 0 0 0
401 1 -13.477823411676138 -9.19370712438694 4.220344716891091 0 0 0
423 1 -10.036310520210627 -3.792365522946902 1.9171655792040472 0 0 0
422 1 -8.1875592137133 -5.259341104839988 1.5322763154938972 0 0 0
421 1 -7.438559789400927 -3.5357756856616263 3.074669734185278 0 0 0
452 1 -6.292585894237178 -3.847773689562551 0.6023559826173059 0 0 0
420 1 -5.6240093761563115 -5.10650272631316 2.671102419597444 0 0 0
450 1 -3.9280711936182673 -3.761009155374202 1.8514353874954885 0 0 0
274 1 -0.08211960697941656 -11.489284249032579 7.94681733198658 0 0 0
295 1 -1.9700636467689492 -5.2645843271857125 1.387826760288604 0 0 0
284 1 -1.4668083065899697 -3.5670617417682635 3.1020690186706688 0 0 0
1221 1 -0.2927924673618385 -3.9212152848053456 0.22924746687575137 0 0 0
385 1 -11.865958868898282 -2.338738791756077 2.286268594351087 0 0 0
378 1 -12.346992470087724 -1.2328516380946084 0.19944812748311236 0 0 0
417 1 -8.254455013198779 -2.5689796126466184 1.1159341031899608 0 0 0
377 1 -9.979093907624275 -1.0210108723945908 1.4894825546215564 0 0 0
416 1 -7.445471363170576 -0.5765683248018494 2.554227174659605 0 0 0
415 1 -5.648047334845351 -2.026657867591508 2.2733715836699506 0 0 0
449 1 -3.8147119485792107 -0.8952884140493023 1.2966355675265255 0 0 0
767 1 -6.761988387660866 -0.23490666066799193 11.344607414157032 0 0 0
294 1 -2.1381643483892283 -2.474521292863349 0.8139501387017045 0 0 0
414 1 -1.470954907280868 -0.5897579582738608 2.596267745387861 0 0 0
408 1 -10.697781847276817 -14.460716425712446 3.8885900147783836 0 0 0
409 1 -12.864928507163073 -12.75853436243437 4.552360516858304 0 0 0
371 1 -12.167301890736033 -13.747019655454194 6.516262623903444 0 0 0
407 1 -10.239386344815514 -12.551994263811334 5.525464408854834 0 0 0
406 1 -8.162176224741524 -14.462465958970084 5.003507076978632 0 0 0
405 1 -7.396914242792478 -12.720596443860787 6.665967879837133 0 0 0
461 1 -6.005755637062836 -13.359433565785734 4.117341747127945 0 0 0
404 1 -5.440256093449923 -14.426113450055565 6.104700317666676 0 0 0
293 1 -3.4536134075019564 -13.322301005874088 5.292298373880019 0 0 0
301 1 -4.104308903003435 -15.107935510220296 3.640031683545377 0 0 0
1394 1 -0.8452719751220918 -13.149756851616964 6.449815272362116 0 0 0
1395 1 -1.5776509910419918 -14.793861065048594 4.75416969604365 0 0 0
300 1 -1.6180611917760217 -11.927140527920532 4.193492298386168 0 0 0
762 1 -0.4070883186273342 -0.7019931127681129 10.988696878976938 0 0 0
400 1 -11.930630185072275 -10.78663082683565 3.648518157012024 0 0 0
365 1 -12.137038224867837 -10.965274928964936 6.204731756484172 0 0 0
443 1 -7.937154392442761 -12.052248415032981 4.541040821825629 0 0 0
398 1 -9.47216809625647 -10.361741188293593 4.881885773828795 0 0 0
396 1 -7.062435164769812 -10.212031089789443 6.187604357014251 0 0 0
435 1 -7.5755719407102164 -9.193149929414734 4.067881299978243 0 0 0
434 1 -5.902276716553198 -10.739721325605665 3.5295681015243865 0 0 0
441 1 -5.161272965793183 -11.652203854885812 5.802707873096345 0 0 0
290 1 -3.327143693939634 -10.484189420757362 4.709209610686276 0 0 0
1334 1 -0.7638992536445937 -10.290457297942375 5.997909431332982 0 0 0
298 1 -1.5751221580210704 -9.162374557223659 3.8679435755539906 0 0 0
399 1 -11.2967315762638 -9.037341693580846 5.325935277225799 0 0 0
358 1 -12.877343479863734 -7.399165678833718 5.773298433891934 0 0 0
391 1 -11.067402684477894 -6.076334238045522 4.855386297114787 0 0 0
764 1 -0.09203384117242308 -0.01579652564764089 6.349980335047658 0 0 0
428 1 -7.564921170419611 -6.31524047771898 3.660403964559631 0 0 0
390 1 -9.403802357105505 -7.671926692653622 4.4221200456212095 0 0 0
388 1 -7.00983545839996 -7.40226874415231 5.69510043391838 0 0 0
433 1 -5.082646264377084 -8.880743166850888 5.181947094312886 0 0 0
426 1 -5.057503467380295 -6.160091094362999 4.74967016775933 0 0 0
296 1 -1.3760132095271906 -6.400728412781863 3.446978897443529 0 0 0
288 1 -3.36314626331961 -7.613688626522349 4.29060480337904 0 0 0
289 1 -2.6203638368794557 -8.725394981991961 6.395657058596402 0 0 0
287 1 -0.7212563706554604 -7.508686578877468 5.483375369895402 0 0 0
351 1 -12.79807046777523 -4.547091651344159 5.409552751203066 0 0 0
383 1 -11.027013280998375 -3.308371974339382 4.386131432847517 0 0 0
357 1 -10.28429888240829 -4.2080218494045205 6.499475333964888 0 0 0
389 1 -8.750601403421925 -5.905930069215298 6.119780625486964 0 0 0
382 1 -9.26863257093062 -4.820356392068337 4.129767506512017 0 0 0
349 1 -8.492633849297896 -2.716508385743264 5.827017760234774 0 0 0
380 1 -6.9304569215817535 -4.483927732170992 5.275483187432236 0 0 0
419 1 -5.062102304949942 -3.4008439015080434 4.417689827397275 0 0 0
269 1 -2.715605710683585 -5.900038648694265 6.085653229944686 0 0 0
286 1 -3.1803408155338744 -4.818981837486678 4.0167272358067905 0 0 0
285 1 -0.746615596821643 -4.58897068001299 5.176470500610158 0 0 0
345 1 -11.050019058335236 -0.4832944593500681 4.098715796697508 0 0 0
352 1 -12.913884154034701 -1.7679508762845497 4.968382411605631 0 0 0
350 1 -10.468257800062606 -1.5169126320666955 6.07038797697518 0 0 0
782 1 -2.749869791138046 -0.13242766868393296 5.236782472645757 0 0 0
376 1 -9.21671779731914 -1.9821830482890057 3.549100457384334 0 0 0
344 1 -8.503619618912996 -0.17406562787140523 5.175426392064843 0 0 0
381 1 -6.779818005796608 -1.743599301594779 4.695378981292812 0 0 0
343 1 -4.604529225676705 -1.3509211698112988 5.984552840043705 0 0 0
1343 1 -0.16285914737674112 -14.277491628961853 8.482835103994002 0 0 0
1259 1 -0.11980607723953263 -2.845541986926415 6.6816292797082895 0 0 0
375 1 -3.3424444168063303 -1.9594267481633505 3.4408388875645954 0 0 0
379 1 -2.6464557987565893 -2.9833671142310703 5.561272402255252 0 0 0
266 1 -0.8808932809848233 -1.8036904430982261 4.598541380590682 0 0 0
374 1 -11.368311550117404 -14.798837158145616 8.633662656427326 0 0 0
338 1 -13.251072251410607 -13.208224708214695 9.12916467941902 0 0 0
369 1 -9.35446969955225 -13.81088084565048 7.700229019548399 0 0 0
373 1 -8.575970134134728 -14.904354882861444 9.804856785561121 0 0 0
367 1 -6.5496162143092365 -13.82841335675197 8.735600643647995 0 0 0
403 1 -4.619613965514668 -12.824030838016066 7.793598779467754 0 0 0
264 1 -3.9643685790708822 -13.79482967764419 10.011743971540255 0 0 0
305 1 -8.754114325291962 -1.6480181011359711 12.325471076893603 0 0 0
280 1 -2.6810990103563253 -14.418723199601082 7.329522393298586 0 0 0
278 1 -2.047617964735794 -12.742353931645479 8.921755783416828 0 0 0
337 1 -13.24724317680137 -10.299949794908324 8.700815648412764 0 0 0
370 1 -11.2939057963908 -12.05434841089191 8.107876982937867 0 0 0
330 1 -10.518720309413425 -10.356368138371364 9.749070667279188 0 0 0
364 1 -11.217869950326127 -9.321916506004925 7.713993486566807 0 0 0
368 1 -8.54979868639732 -12.121120423748993 9.208607918305258 0 0 0
363 1 -9.231364703448751 -11.053993738059752 7.1928296152102185 0 0 0
362 1 -8.488954829166266 -9.322382035962043 8.886740463713839 0 0 0
361 1 -6.445986988447438 -11.16837113408814 8.354644633727279 0 0 0
279 1 -3.9261283502794964 -11.109259711527699 9.417313052596793 0 0 0
276 1 -4.50433827053044 -9.939713061726904 7.337013874758753 0 0 0
1175 1 -12.677433341060905 -15.044963954510125 2.430962363212439 1 0 0
292 1 -2.674430550295293 -11.591698521283814 6.817332644553758 0 0 0
275 1 -1.9132737107617253 -9.987054082314556 8.495929346685426 0 0 0
331 1 -10.515921906149323 -7.617470282772509 9.436100919710622 0 0 0
356 1 -10.593152622188104 -7.221101602566424 6.955047157723762 0 0 0
1367 1 -13.211976416857805 -7.592534771011981 8.284376583260748 1 0 0
397 1 -8.856324032248196 -8.701733482612342 6.6683572150384585 0 0 0
354 1 -8.049646403093584 -7.036613893567248 8.505942842446945 0 0 0
272 1 -4.459600332963593 -7.25450398031712 6.843812950130253 0 0 0
395 1 -6.328761844787128 -8.478998124975805 7.790396163520658 0 0 0
353 1 -5.602515805502738 -6.7987115795115365 9.53806547883589 0 0 0
256 1 -3.6803493746233773 -8.386927640666958 8.96692747354206 0 0 0
271 1 -1.8596663313081887 -7.083459416504372 8.106689412667109 0 0 0
309 1 -10.892739712030565 -2.3512527177778324 13.246284655337494 0 0 0
326 1 -12.12341435097419 -5.657925759830192 7.405140622524417 0 0 0
325 1 -11.536298697481454 -3.8101050955783062 9.105563760147863 0 0 0
1302 1 -12.379015731826065 -6.01617113415327 9.916899946934429 1 0 0
324 1 -9.857924860933444 -5.473598601670595 8.552410146370544 0 0 0
355 1 -7.934326572350149 -4.232308868541329 7.8767572172611935 0 0 0
323 1 -7.333189556336655 -5.26669588580725 9.99864981586806 0 0 0
347 1 -4.6272562049915305 -4.213524473676667 6.5865152058672365 0 0 0
387 1 -6.224258542777311 -5.883272929634829 7.316055423792385 0 0 0
252 1 -3.781121035087958 -5.467755185306926 8.652368989421085 0 0 0
316 1 -5.694359504325267 -3.8217542384637078 9.036837254012987 0 0 0
250 1 -1.1577389916587357 -5.185755009065263 9.780679186521958 0 0 0
268 1 -1.920524640351017 -4.17870774972865 7.632612239524093 0 0 0
67 1 -6.343368814043646 -1.1763550458886254 0.06598177002299899 0 0 0
320 1 -12.088708536121437 -2.8344151973797356 6.95893061672643 0 0 0
319 1 -11.267776676338995 -1.116300609344453 8.512555336473746 0 0 0
311 1 -13.149556073045499 -2.3768633799297483 9.557440731702414 0 0 0
318 1 -9.39278107008597 -2.529968928687623 8.253695248082412 0 0 0
775 1 -8.521455596765486 -0.491451923648885 7.489537929341392 0 0 0
317 1 -7.543680394033403 -1.9647044992628384 9.7723339397727 0 0 0
348 1 -6.508933657866745 -2.4444862908547673 6.98884446499769 0 0 0
346 1 -3.8498603266495355 -2.3907355359907676 8.177599759644778 0 0 0
773 1 -5.829772874323315 -0.8484622593371007 8.564830545837467 0 0 0
236 1 -2.2587048725115384 -1.9753074516795817 11.771399227413859 0 0 0
761 1 -3.1124946871952197 -0.7628568283277488 9.793751695257782 0 0 0
247 1 -1.3232787626752724 -2.3586767384204688 9.26882380793365 0 0 0
248 1 -2.0146959536251927 -1.1525117963559985 7.267441353130383 0 0 0
342 1 -12.436892850988325 -14.333665081292478 11.23867480258982 0 0 0
173 1 -11.679960986049554 -12.619257813349684 12.767680547246599 0 0 -1
336 1 -10.554347681606046 -13.162913708397015 10.252229683504122 0 0 0
340 1 -9.890638771882145 -14.375962826950028 12.262012081882808 0 0 0
334 1 -7.891310323984752 -13.189073048371231 11.383106056329574 0 0 0
372 1 -6.064214236092446 -14.981336247755763 10.859079444468133 0 0 0
245 1 -5.161482744400198 -13.364502828592434 12.575708584332773 0 0 0
265 1 -3.1903645618308456 -14.937878431047578 12.04218488118471 0 0 0
1288 1 -0.48044768525745063 -14.810179216885778 13.056429798829939 0 0 0
262 1 -1.3160400204079874 -13.807051418953437 11.03154594656942 0 0 0
1324 1 -12.513654712610235 -11.438962936816113 10.696753916435846 1 0 0
314 1 -11.541880713163252 -9.874541477430398 12.35461295217446 0 0 0
335 1 -9.651969557928762 -11.480510219001323 11.926697822577317 0 0 0
112 1 -6.945645528065191 -11.545910337314307 12.970942733689352 0 0 -1