LAMMPS data file via write_data, version 2 Aug 2023, timestep = 0, units = metal

1869 atoms
3 atom types

-13.758492000540395 13.758492000540395 xlo xhi
-14.380637837550026 14.380637837550026 ylo yhi
-13.827600943182794 13.827600943182794 zlo zhi

Masses

1 55.847
2 1.008
3 1.008

Atoms # atomic

1443 1 -13.105279480448175 -10.432671482967024 -12.02694825606409 0 0 0
1444 1 -10.64189119866125 -10.797144008889326 -11.806943534537181 0 0 0
1466 1 -9.773690899153191 -12.501225022034292 -13.128531645446467 0 0 0
1467 1 -9.222833387470317 -13.139467454843913 -10.717502165805694 0 0 0
1655 1 -10.210703236263235 -11.289082174993883 -9.25701815844573 0 0 0
1 1 -12.310784986126334 -12.28632550912236 -13.36870696037171 1 0 1
1465 1 -11.773843611055431 -12.882829855566396 -11.014564121877124 0 0 0
1421 1 -12.570195976491211 -11.13576418889048 -9.515838874730658 0 0 0
1633 1 -11.243196037029394 -13.392903233628049 -8.572878575688048 0 0 0
1446 1 -9.20306730848496 -9.107158943675454 -9.91956931609621 0 0 0
1399 1 -11.519927967499036 -8.955942314694255 -10.306791672563117 0 0 0
1316 1 -13.650334960267529 -13.191621178516135 -8.880419726057182 1 0 0
937 1 -13.38089057651695 14.35410233270547 -12.65336457245013 1 0 0
1251 1 -8.656644085708756 -10.303039945756455 -13.817892856822406 0 0 0
1468 1 -8.23571975482535 -11.01405152832233 -11.369303192631603 0 0 0
1488 1 -5.807477075014336 -11.181745842496493 -11.190100299733725 0 0 0
1289 1 -4.79357706648176 -12.989119187009857 -12.485350486871644 0 0 0
1469 1 -7.740697196978149 -11.524388636642392 -9.166675625599805 0 0 0
1471 1 -4.417492342106632 -9.668182745138823 -9.424394419338155 0 0 0
1489 1 -4.487510255654412 -13.586208664078972 -10.200700866304457 0 0 0
1487 1 -7.420036669494248 -12.721284730820088 -13.000071684926402 0 0 0
1134 1 -6.818095872354739 -13.28349794853002 -10.459067372092706 0 1 0
1470 1 -6.835788602107816 -9.44334070694741 -9.871083654397065 0 0 0
1674 1 -5.277446928917648 -11.800167862761679 -8.704148747107116 0 0 0
1490 1 -3.4071624736316366 -11.397478671562727 -10.850333501069382 0 0 0
148 1 -4.872643875835578 -9.033545747184666 -11.892241540028868 0 0 1
155 1 -3.782725141154799 -10.869036741509774 -13.260333626186101 0 0 1
1272 1 -6.335971858632682 -10.653933112799704 -13.48474758650852 0 0 0
1331 1 -2.8841778936658056 -12.084713514201603 -8.608982556755105 0 1 0
1252 1 -7.231061324089437 -8.833804202028519 -12.109314944647616 0 0 0
1491 1 -2.394891392502565 -13.34527674217485 -12.185737168340223 0 0 0
1273 1 -2.294902537260077 -9.277571260846905 -11.593134886636044 0 0 0
1675 1 -1.9518642959687504 -9.931461184351775 -9.189781576357213 0 0 0
1290 1 -1.3916293039072976 -11.166366347380968 -12.968624098331208 0 0 0
1291 1 -0.9267689046027243 -11.698278870188805 -10.644442118747389 0 0 0
1293 1 1.550759566009397 -11.943465087587647 -10.315036150309872 0 0 0
1303 1 1.1303201003308025 -11.313911404825767 -12.577214657562891 0 0 0
1277 1 0.6285722424322788 -10.020781970966137 -8.933632275193126 0 0 0
1504 1 0.12784178336587182 -13.58221233522813 -11.820304859412122 0 0 0
1095 1 2.16228152833469 -9.204403594186264 -13.395407886204957 0 0 0
1292 1 0.17159869632568814 -9.494201729984962 -11.284289731467696 0 0 0
1146 1 -2.088956031041212 -13.948113914278553 -9.888222583983195 0 1 0
943 1 2.534999422585271 -13.79467762379283 -11.687505444074532 0 1 0
1010 1 0.4840236343571096 -14.146281017274852 -9.537759357657476 0 1 0
1294 1 2.634909514365683 -9.70272782274047 -10.879676769141795 0 0 0
1094 1 -0.2688490582296925 -9.154090058630246 -13.692350565517073 0 0 0
1505 1 2.9904320583789126 -14.339850415489082 -9.220861893326806 0 0 0
1492 1 -0.37399495687224693 -12.171876652644274 -8.306244162498714 0 0 0
1494 1 3.0072692375309824 -10.302947492603032 -8.49888740324619 0 0 0
1304 1 3.6201401946225236 -11.572015574036643 -12.450419247562587 0 0 0
1109 1 4.9598674387675405 -10.041937788126447 -10.728879371263107 0 0 0
1120 1 5.936465391301239 -11.879929573105866 -12.147854267070143 0 0 0
1295 1 4.089139522849811 -12.134591525331357 -10.038167247937846 0 0 0
1306 1 6.513622712849697 -12.458269692006803 -9.760038029805312 0 0 0
1111 1 7.558370170447985 -10.343538423354968 -10.379422888064438 0 0 0
993 1 7.119540141360082 -9.808325091744807 -12.725854696678528 0 0 0
80 1 4.6231727298855585 -9.411641505710044 -13.117188497093938 0 0 1
1119 1 4.929384923444934 -14.010650374249428 -11.343805519484924 0 0 0
7 1 6.817053765611368 -13.655190093029312 -13.513382398716846 0 0 1
1308 1 8.466452244779864 -12.113002152446668 -11.799660252221047 0 0 0
1313 1 7.459641721264893 -14.225655975179567 -11.035685480370208 0 0 0
1118 1 4.617279736662143 -13.497044119188606 -13.724275395251857 0 0 0
1307 1 8.833009621130122 -12.773631486505018 -9.342867373179613 0 0 0
1129 1 13.251372910233494 -12.547062661497995 -11.21759723501559 0 0 0
1113 1 9.988669653634693 -10.546538608650591 -10.050778284555243 0 0 0
998 1 11.989678499923299 -10.315247525771838 -12.2066485182958 0 0 0
1122 1 9.421001863721562 -10.000291778394535 -12.541302347801453 0 0 0
1123 1 10.811859252739128 -12.409846046727393 -11.585945137539337 0 0 0
1125 1 12.499055042330413 -10.820350405451777 -9.914832821599504 0 0 0
1315 1 11.434226241327808 -12.975558107060612 -9.20744023336854 0 0 0
1121 1 9.237559873627896 -14.000090823573114 -13.206338756789178 0 0 0
1310 1 11.584907213243413 -9.011978544769521 -8.412201280679078 0 0 0
1127 1 11.70795024986766 -14.167195344608244 -12.997108281968075 0 0 0
999 1 12.801397285514357 -12.068444315497738 -13.701097402306115 0 0 0
1445 1 -9.729863159265811 -8.5680879401869 -12.43276146492572 0 0 0
1422 1 -11.307896065146124 -4.930910935611944 -9.532059238076219 0 0 0
1424 1 -9.40060507655124 -4.53812618378311 -11.659062143796191 0 0 0
1211 1 -11.84757139886696 -4.46298770322174 -11.823301940227497 0 0 0
1423 1 -10.464735943558264 -6.773060234602624 -11.111420647514999 0 0 0
14 1 -12.03769001185425 -8.288845071094745 -12.713168502036778 1 0 1
39 1 -12.896144815687668 -6.663760853656442 -11.352078406275318 1 0 1
1231 1 -11.015271016792566 -6.187619715593277 -13.288895196747461 0 0 0
1614 1 -8.902513943865536 -5.283627371067871 -9.441032505810123 0 0 0
1591 1 -12.49134856667326 -7.138396388366978 -8.96662412990307 0 0 0
1232 1 -8.56472334331125 -6.423449520700136 -13.130319151964493 0 0 0
1612 1 -10.084388515437794 -7.481193010396529 -8.610799625032051 0 0 0
49 1 -13.442773383222283 -6.039694470882919 -13.614450399036802 1 0 1
1401 1 -12.298250641378747 -3.247754966886406 -8.247501798192406 0 0 0
1447 1 -8.07287345573317 -7.130615086225995 -10.772005671662209 0 0 0
1472 1 -3.194556353645785 -7.646226538507674 -10.196654690305504 0 0 0
1254 1 -5.667163682686828 -7.307036451010808 -10.377010363463562 0 0 0
1234 1 -6.980175467012804 -5.061797214727335 -11.411926195070357 0 0 0
1236 1 -4.587033178311888 -5.133774245056179 -11.07001716368925 0 0 0
1255 1 -3.76454350695111 -6.893239660333496 -12.485670210857473 0 0 0
1448 1 -6.551776384271482 -5.375654437711328 -8.999623595665074 0 0 0
1253 1 -6.158763269406213 -6.797742863457112 -12.877257271821295 0 0 0
1451 1 -3.129263008145543 -3.570083310564671 -9.573513422263938 0 0 0
1450 1 -4.067785571488466 -5.717841287098757 -8.824579739672352 0 0 0
359 1 -5.060812535628989 -4.54784451223288 -13.416618296741067 0 0 1
1657 1 -7.569735991857474 -7.554182007155261 -8.349755939784048 0 0 0
1449 1 -5.552421325775539 -3.2902683603931955 -9.784373754042797 0 0 0
1233 1 -7.496001386497532 -4.32987456284617 -13.749528560899904 0 0 0
1069 1 -2.597007297656054 -4.912946424162088 -13.426891830398267 0 0 0
1256 1 -2.1992284830764284 -5.3898682164235705 -10.888059276619813 0 0 0
1274 1 -0.7828936984074062 -7.812666756309243 -9.89772553456537 0 0 0
1279 1 1.7460272261140322 -7.926063472884458 -9.56950382419378 0 0 0
1082 1 -1.341519388996721 -7.0588810674421545 -12.509311322861507 0 0 0
1276 1 0.3260489762998038 -5.671639925540244 -10.634743201086996 0 0 0
1083 1 -0.14247117133358245 -5.15349740876043 -12.886987991549658 0 0 0
1278 1 1.231217515407053 -7.461241019159549 -11.98447351979949 0 0 0
1085 1 2.3660515301522675 -5.458004504575939 -12.673400819673265 0 0 0
1261 1 1.8994424036649988 -3.9416361842023857 -8.939518499338881 0 0 0
1258 1 -0.5078895064581186 -3.899758850333562 -9.153329268125457 0 0 0
1474 1 -1.6476222933468563 -5.904274805771484 -8.52211896863978 0 0 0
1280 1 2.759564126812256 -5.852257631441521 -10.325222097076491 0 0 0
1259 1 1.3885052828538758 -3.3741966721736283 -11.275063078389074 0 0 0
1257 1 -0.997793662073958 -3.217213295999624 -11.60335212342397 0 0 0
1260 1 0.8611916666943475 -6.138296322378032 -8.124183312599587 0 0 0
1298 1 6.659372195010912 -8.53324633847824 -9.110735777676236 0 0 0
1110 1 6.054305820250379 -7.88208448689247 -11.402293362440213 0 0 0
1296 1 4.249809020789916 -8.218600642042496 -9.175851711696914 0 0 0
1097 1 3.6465616808244956 -7.627313489909494 -11.719741229672154 0 0 0
1098 1 4.8231553282396415 -5.6792057396898095 -12.4964545598587 0 0 0
1099 1 5.369702480950798 -6.13824806636139 -9.982903601651167 0 0 0
988 1 7.214209683265674 -5.6451110283841945 -12.179156769258954 0 0 0
1100 1 6.2838416451237595 -4.033237713136581 -10.746083591921819 0 0 0
1087 1 3.7780277805094595 -3.7978970184923817 -11.179978182405476 0 0 0
1101 1 7.747020809418293 -6.320105674092407 -9.662944158951376 0 0 0
1263 1 4.325852903962476 -4.333553182278852 -8.602574614843792 0 0 0
983 1 8.3681223193267 -3.599546536406276 -12.86451111544371 0 0 0
32 1 8.080626025005381 -7.448483146016674 -13.521851971705901 0 0 1
982 1 5.819269440045074 -3.3768521283715494 -13.041836107406246 0 0 0
1282 1 6.804014490532259 -4.438896993962217 -8.383692381724632 0 0 0
1112 1 8.612768090114402 -8.151411750135289 -11.20659166285633 0 0 0
1086 1 3.448004606227519 -3.261546016027376 -13.413992681048123 0 0 0
1114 1 9.117388190358232 -8.657866821610305 -8.779549521025562 0 0 0
1102 1 8.838586365006025 -4.252620660967185 -10.523274033994523 0 0 0
1210 1 13.54599307256643 -8.650083251125324 -10.44245300118056 -1 0 0
1302 1 13.632431353305043 -4.776968527324097 -9.906553082055657 0 0 0
1124 1 11.091970316826439 -8.381776754613014 -10.845847931135712 0 0 0
994 1 10.474610689791833 -7.863961600870257 -13.19988779442543 0 0 0
989 1 9.744435572541883 -5.972646882381213 -11.844857753282225 0 0 0
991 1 13.294769662205594 -4.236774412277532 -12.309613749693323 0 0 0
996 1 12.126815697619945 -6.201757132996191 -11.406967181436794 0 0 0
1103 1 11.24358514636297 -4.467250292046918 -10.114728027031722 0 0 0
1115 1 12.453071313544159 -6.850107758870554 -9.100760188177043 0 0 0
9 1 13.077181088861574 -8.114897769607119 -12.824976018672196 0 0 1
990 1 10.781219758782226 -3.9644264796839632 -12.508139915427494 0 0 0
1300 1 10.17621499927773 -6.607050781074902 -9.438781289248436 0 0 0
1402 1 -10.47816921877383 -2.834517339696209 -10.357593857185126 0 0 0
1400 1 -12.74442424374097 -2.567501444379623 -10.629796421005361 0 0 0
1190 1 -11.755532233270015 -0.5247378274559207 -11.35593700756378 0 0 0
1212 1 -11.00394320611133 -2.3517938442452238 -12.82468028850725 0 0 0
1379 1 -12.707668376228831 1.3605759481004682 -10.037578651925994 0 0 0
1192 1 -9.350960016309141 -0.7463391739162937 -11.067042996906164 0 0 0
1380 1 -11.32919231064484 -1.0686198732187222 -8.906707067409197 0 0 0
1381 1 -10.169375917027494 1.0347127146558517 -9.638663123507733 0 0 0
1171 1 -10.721341063908255 1.6866813382183174 -12.03630341049205 0 0 0
1191 1 -9.920990192407812 -0.19216424964517032 -13.374061522673106 0 0 0
1403 1 -8.76111332509277 -1.2388737558158311 -8.62889447256869 0 0 0
992 1 -13.350114572614938 -2.116647259124626 -13.051987530373607 1 0 0
1213 1 -8.4316123123309 -2.5651065894351692 -12.467701640655143 0 0 0
1169 1 -13.013301224422845 2.0093935904045885 -12.333399694955023 0 0 0
204 1 -12.404643092655643 0.019368027564960144 -13.621427331931331 1 0 1
1193 1 -8.3271389940356 1.4138276406641097 -11.77334463998056 0 0 0
1378 1 -13.684572614873899 -0.8224688225923238 -9.153625811466569 0 0 0
1425 1 -7.843766961124903 -3.0696773762410814 -10.114503745753785 0 0 0
1237 1 -3.5329283148010564 -3.075557229804904 -11.888752402119213 0 0 0
1404 1 -7.828284759763297 0.8896963913445006 -9.195262442237338 0 0 0
1426 1 -6.995528001018601 -0.9202498831861199 -10.649425835455595 0 0 0
1235 1 -5.985130481777805 -2.777107207336046 -12.08028230376339 0 0 0
1055 1 -4.978732787508974 -0.5821913438831405 -12.792110428533018 0 0 0
1214 1 -7.331283440590663 -0.2767824325514887 -13.085089373434872 0 0 0
1215 1 -5.948781909719778 1.3027978758364203 -11.39603989482662 0 0 0
1216 1 -3.432370131101761 0.877120343284858 -11.137231390100427 0 0 0
1428 1 -4.508350872675162 -1.1489750637051337 -10.475672404207103 0 0 0
1406 1 -5.338382838385202 0.6731956290517225 -9.222223996682128 0 0 0
1384 1 -2.982062889862595 0.4121255527990684 -8.816703539206483 0 0 0
368 1 -3.82434423804297 1.6117727881749229 -13.549098714981065 0 0 1
1405 1 -6.422405466696761 -1.4224386735260328 -8.362575232250716 0 0 0
1056 1 -2.4913418640118348 -0.7587613306768866 -12.548241913767493 0 0 0
1070 1 0.012068411996866146 -1.0804740012257152 -12.296854456276023 0 0 0
1238 1 -1.9720736180414136 -1.4368365076228091 -10.319355675779395 0 0 0
1239 1 0.5055990267831625 -1.6902939699783293 -9.976058715758647 0 0 0
1071 1 0.9509275330194917 0.9504806165467627 -13.108402684989562 0 0 0
1057 1 -1.3871659914368273 1.4134293244684208 -13.341993887507254 0 0 0
1218 1 -0.9631441046742371 0.6773308286687829 -10.954333732220707 0 0 0
1241 1 1.380273585760344 0.35169027867780933 -10.69506120143311 0 0 0
1073 1 2.531307019936998 -1.3378844431626131 -12.125993882089082 0 0 0
1219 1 -0.5431864849691319 0.11517586249801504 -8.600434041341874 0 0 0
1220 1 0.589054471220237 2.182778591791479 -9.137370361958514 0 0 0
1084 1 0.9708287494569987 -2.9540225765144488 -13.707048475744019 0 0 0
1072 1 2.895525908789006 -2.0791444364341736 -9.714731128544248 0 0 0
1222 1 2.9730621165455826 1.9186383812845662 -9.029053011614307 0 0 0
1221 1 1.9090377521525959 -0.2720902296528145 -8.322819874544045 0 0 0
1074 1 5.463120367934609 -2.1544468881489856 -9.271671008951595 0 0 0
1060 1 3.9283666883812334 0.12741136623614047 -10.44286616465054 0 0 0
975 1 4.816068700268223 -1.6976894722814393 -11.673445488314785 0 0 0
1088 1 7.341109126985019 -1.89935527074425 -11.459454975362604 0 0 0
1075 1 3.3655959166944722 0.8306950146737186 -12.693274503309791 0 0 0
1076 1 6.410470707298996 -0.03402140736444359 -10.059622871050596 0 0 0
976 1 5.914904530581785 0.44927963248600733 -12.411467402453338 0 0 0
1089 1 7.882829340820974 -2.286989363731731 -9.116332693692422 0 0 0
1062 1 5.4601531891453465 1.8500779606584281 -8.797783096807347 0 0 0
978 1 8.275920154996347 0.36583934970503407 -12.102657039980231 0 0 0
1077 1 7.47814655338871 2.230348197869784 -10.83683449389342 0 0 0
1245 1 7.986170314406552 1.5479757618026806 -8.252039207648187 0 0 0
1061 1 5.0507325663243545 2.1602782238109306 -11.091169613727894 0 0 0
174 1 6.851945947928511 -1.2788310842031052 13.81434427888151 0 0 0
1090 1 8.802898149912986 -0.17013942579431784 -9.749188638842806 0 0 0
1116 1 12.882999555869928 -2.9504827301427543 -8.50736473823411 0 0 0
1377 1 13.274192326587729 -0.18843530444883605 -11.57234325725538 -1 0 0
985 1 9.856096599222303 -2.0228512387980384 -11.217662068805978 0 0 0
1091 1 10.314536483900786 -2.5921023143124255 -8.820080059616592 0 0 0
1104 1 12.316301701638421 -2.446860468826591 -10.968658974215932 0 0 0
986 1 10.83884026676695 0.146140061815208 -11.793822226115044 0 0 0
1092 1 11.353504117695254 -0.5621907456132593 -9.51881882903176 0 0 0
189 1 11.709755271536542 -1.7864778998759494 -13.271778171147213 0 0 1
987 1 12.408220572102172 1.6043236319555199 -10.223917083649173 0 0 0
971 1 9.923265141514792 1.8319150865958562 -10.40853880863893 0 0 0
984 1 9.393810861256805 -1.4777848092216068 -13.582994210400646 0 0 0
979 1 11.909349020056814 2.2357302006925615 -12.568036532904346 0 0 0
977 1 9.337543748701068 2.5169671894674224 -12.921308182283582 0 0 0
1151 1 -10.743048861734223 5.5760059817080645 -11.352299117556104 0 0 0
1170 1 -12.126455011810648 4.047355256070496 -13.026779358043688 0 0 0
1356 1 -11.618869427688821 3.4278702532147314 -10.598273726732264 0 0 0
1172 1 -9.675110089027896 3.8646323443468127 -12.595274493780606 0 0 0
1336 1 -13.165420247161492 5.8319551482245195 -11.480208021308064 0 0 0
1358 1 -10.070784158235904 5.004664174781439 -8.981690335758302 0 0 0
1337 1 -12.722375118152728 5.141466255905055 -9.239159663691638 0 0 0
1173 1 -9.059249701126816 3.2310137051700387 -10.395092359537479 0 0 0
1339 1 -9.017233075476863 7.206483929728758 -9.811723836756268 0 0 0
1338 1 -11.42940392417208 7.296747115003715 -9.975446420950838 0 0 0
1011 1 -8.624808436731483 5.966954677725294 -13.52802699924945 0 0 0
1152 1 -9.618815226328774 7.695660124058506 -12.131811779361875 0 0 0
1150 1 -11.060283104285386 6.13977702447956 -13.747110966244204 0 0 0
1149 1 -12.00297760978919 7.84096050159879 -12.364144257148737 0 0 0
1153 1 -8.138148929493596 5.291181181489556 -11.171733013525671 0 0 0
1194 1 -6.790611084762485 3.108016286974486 -10.038283513165005 0 0 0
1196 1 -4.319707649004227 2.819315129898996 -9.839600326504174 0 0 0
1195 1 -4.838448949029905 3.366636568626692 -12.21957518797466 0 0 0
1024 1 -7.228752328707668 3.5045871132311532 -12.577906818048952 0 0 0
1025 1 -3.84151930145012 5.594248315869574 -12.91580786711181 0 0 0
1175 1 -5.692594830984676 5.217017781889162 -10.745447908417773 0 0 0
1360 1 -7.644402269603482 4.910272546161469 -8.66999099250141 0 0 0
1362 1 -4.1938144651770415 6.650335744117747 -9.171587983494636 0 0 0
1197 1 -3.2333083031611274 4.850744005724511 -10.703596955339677 0 0 0
1154 1 -6.105144843011719 5.7789397562198666 -13.15596922043731 0 0 0
1341 1 -6.5856562465615145 6.993294533381341 -9.472381395988151 0 0 0
1174 1 -4.708485142323243 7.383525346863628 -11.408580581813387 0 0 0
1340 1 -7.142579037707384 7.4966832826667265 -11.784261251021658 0 0 0
1383 1 -5.252172602133655 4.585960564527294 -8.31534296206258 0 0 0
1026 1 -2.7045452186499297 7.547977567424528 -13.622802088767203 0 0 0
1198 1 -1.889540224265076 2.534300425759671 -9.472582242192672 0 0 0
1045 1 2.4821405643936405 2.517351435685825 -11.424377359288874 0 0 0
1041 1 -2.3449602423859304 2.9832700224900464 -11.84559312309613 0 0 0
1176 1 -2.3390906244572225 7.010030350795443 -11.315554131856292 0 0 0
1058 1 0.053926882492850936 2.8776194765294107 -11.563005397966124 0 0 0
1027 1 0.11874475966192577 6.791967537714346 -10.989544612274212 0 0 0
1042 1 -1.2593075984018434 5.239711394753641 -12.680044654225798 0 0 0
1043 1 -0.8877069354739628 4.553866142523198 -10.372231449157324 0 0 0
1044 1 1.1497980515860107 5.084040552364588 -12.265305141940132 0 0 0
951 1 2.195367488717343 7.164978405696754 -13.126412722785284 0 0 0
1199 1 1.6232301861743252 4.416880026047728 -9.966426299264054 0 0 0
1177 1 -1.7212649046813784 6.471314913369511 -9.012043257989676 0 0 0
1028 1 -0.3360592419942936 7.405897143137427 -13.40038789387336 0 0 0
1179 1 0.7083855554065099 6.25022967547784 -8.634954673579058 0 0 0
1046 1 2.646020690201203 6.570427530725166 -10.70244077204715 0 0 0
1059 1 1.9277477737727882 3.1579498839275857 -13.719837905821217 0 0 0
969 1 7.073978411764772 2.6891489019715387 -13.253511088151058 0 0 0
961 1 4.607150767011893 6.8497778758359225 -12.740458924615691 0 0 0
1047 1 4.0595076532572545 4.208197766612571 -9.618007319410555 0 0 0
1063 1 6.034426147166988 4.606015488287337 -11.785040069408339 0 0 0
970 1 3.5656256236979136 4.578325715542174 -12.017820280485825 0 0 0
1048 1 5.06055769443209 6.398631846279475 -10.350859401056228 0 0 0
963 1 7.056075043070257 6.720870549719898 -12.642903428971719 0 0 0
1049 1 7.654491058763158 6.158858911494125 -10.18912440101924 0 0 0
1224 1 6.544715079339747 4.019514829418796 -9.423626730142798 0 0 0
968 1 4.408537632468748 2.9110490592527256 -13.335749472564615 0 0 0
1033 1 6.655017418205203 7.909962656624714 -8.692099588118602 0 0 0
972 1 8.393406750523022 4.42408468519945 -11.460662813600011 0 0 0
1031 1 4.3387091636221395 7.971803178244908 -8.938963148402713 0 0 0
1201 1 3.157620914032437 5.876232576958174 -8.272298800061218 0 0 0
1081 1 -13.734646165180083 3.038279984544875 -8.567239395631493 1 0 0
967 1 13.651025510080197 7.695188463626721 -10.126347632029642 0 0 0
980 1 13.262273729393316 3.74380432540811 -10.948906842978552 0 0 0
1064 1 8.881019981462687 3.7379964981004896 -9.10786947465104 0 0 0
973 1 10.832589247434614 4.043232087164366 -11.314167768214077 0 0 0
1065 1 9.989221938764727 5.899749383628389 -9.917095024993653 0 0 0
938 1 9.53485863775109 6.333968994655322 -12.343801969871743 0 0 0
1067 1 12.375973243315316 5.590208557975593 -9.503057310466872 0 0 0
974 1 12.003789241345336 5.994138999099864 -11.840156591098898 0 0 0
1066 1 11.246297395902564 3.4070991419674073 -9.048644087464764 0 0 0
981 1 12.922778425684571 4.270867727501123 -13.344086158740225 0 0 0
1051 1 9.15281188300643 7.551484967368928 -8.468086233633137 0 0 0
299 1 10.38585768627838 4.577464217925954 -13.650434682720906 0 0 1
1137 1 -10.610096294218227 9.530652784362303 -10.623713525023355 0 0 0
1130 1 -12.893355654593778 9.72670424532759 -10.980912229184991 0 0 0
1131 1 -11.934574435632992 11.918880778429884 -11.597832717623916 0 0 0
1136 1 -11.068366468700445 10.087491710257215 -12.958597383886794 0 0 0
1138 1 -9.505468075927823 11.737345031440487 -11.387369044250185 0 0 0
1325 1 -11.303095919762468 11.433335501586182 -9.17947295895075 0 0 0
1322 1 -8.987815523789019 11.041559580898664 -8.987212529163887 0 0 0
1004 1 -8.616957239446839 9.87060638878637 -12.766993354965686 0 0 0
1324 1 -12.432006524945846 9.201199127395906 -8.502446147706276 0 0 0
939 1 -13.607576874696447 10.349702832054266 -13.33310322858743 1 0 0
1132 1 -10.39394665240455 13.561031731530111 -9.921157431863357 0 0 0
1139 1 -8.136200443367308 9.264453707322659 -10.335932428331443 0 0 0
1140 1 -7.144979916837805 11.459514094787878 -11.068705897707876 0 0 0
1156 1 -3.6122697142693276 9.366297294592755 -12.260293937536389 0 0 0
1157 1 -3.1620609295552953 8.931043604027114 -9.815252177964982 0 0 0
1005 1 -6.124307731338276 9.621357738938595 -12.456615338508058 0 0 0
1006 1 -4.67632591262306 11.278428002991536 -10.821680227307674 0 0 0
1141 1 -5.549722350085853 9.13071187827071 -10.085070903874724 0 0 0
1143 1 -3.0054390750772857 12.833996934127626 -9.213938804405625 0 0 0
1329 1 -6.498693336433101 10.89154735851012 -8.731032738758538 0 0 0
1002 1 -7.5877620013034575 11.985297644328956 -13.482161184086493 0 0 0
809 1 -5.197698128431547 11.723411867384879 -13.204814955204233 0 0 1
1145 1 -5.517038603279579 13.06179258423112 -9.48896433297327 0 0 0
1321 1 -7.962567406117877 13.213623200856755 -9.593815479824524 0 0 0
1344 1 -3.9966606224365595 10.672642931252 -8.482666356527922 0 0 0
1144 1 -3.6397845525558736 13.315232456548856 -11.597854698285074 0 0 0
1007 1 -2.6264577634822057 11.636457603298368 -12.848013977837015 0 0 0
1158 1 -2.149289555475736 10.966083971629995 -10.622776482798892 0 0 0
1029 1 1.8691889265974133 8.394042640485083 -9.272984921783038 0 0 0
1178 1 -0.6322201177572317 8.611540038825314 -9.65618611728598 0 0 0
1014 1 -1.143444665496288 9.185880690327597 -12.006005755064946 0 0 0
944 1 -0.057772804812353584 11.275836700670311 -12.759990467977131 0 0 0
1016 1 0.4123949763392094 10.641682245385294 -10.374122304632879 0 0 0
1017 1 1.481735105979805 12.822413549493376 -10.975901802985076 0 0 0
1030 1 1.3178040297072648 8.865180370206716 -11.741117899311767 0 0 0
945 1 2.279979457224689 11.005945054184274 -12.234495457292887 0 0 0
1160 1 -0.5271192774782172 12.492164300843804 -8.85083048699395 0 0 0
1162 1 1.9249701162670494 12.412198213046633 -8.494336253826656 0 0 0
1009 1 -0.9792406651965848 13.07139592288556 -11.121135300607465 0 0 0
1117 1 0.8866731426543328 13.394738164374854 -13.282461451722659 0 -1 0
1018 1 2.8432053161306197 10.534527190648049 -9.821458573197908 0 0 0
1159 1 -1.6456465909334987 10.31497058556005 -8.23790450864134 0 0 0
952 1 3.761753176886641 8.613913594469558 -11.306795706283184 0 0 0
947 1 6.453785806190941 12.291789195957733 -10.367274967880796 0 0 0
953 1 4.684629038347369 10.852046051743727 -12.097373913574877 0 0 0
1019 1 4.0213402855961835 12.66792937856319 -10.628821889928478 0 0 0
1032 1 5.225865042131753 10.105162024870257 -9.6651013245155 0 0 0
954 1 6.2611110818962405 8.513110599022006 -11.11665590390984 0 0 0
1034 1 7.623650680185095 9.909080610365475 -9.49855562775615 0 0 0
955 1 7.179954375609457 10.667748555106176 -11.905946994837755 0 0 0
948 1 5.783354992029578 13.014474685317648 -12.885582621130945 0 0 0
962 1 5.612068118144974 9.005386737511913 -13.669440492238575 0 0 0
964 1 8.08275219241058 8.807533110669368 -13.26870582787084 0 0 0
946 1 3.397608862055927 13.172734063693976 -13.034963716856637 0 0 0
1126 1 8.21404311968457 12.721938791700502 -12.529177006239179 0 -1 0
1020 1 4.436632046931658 11.904526917481185 -8.449726057811832 0 0 0
965 1 11.14498324614845 7.9727425937540986 -10.461090781568162 0 0 0
1050 1 8.711534384621201 8.179075438124425 -10.981643851705828 0 0 0
1319 1 13.69218987401448 11.552651668853162 -9.619233428785321 -1 0 0
949 1 8.907561308818538 12.055301962696884 -10.097663144034108 0 0 0
433 1 10.489193418535548 8.415202578861756 -12.846894391924916 0 0 1
936 1 10.670366035982154 12.36637465246336 -12.186696098230383 0 0 0
956 1 9.62309600216536 10.27658416712406 -11.51081458148314 0 0 0
957 1 13.262844165890696 12.181838461050049 -11.872469795602813 0 0 0
958 1 11.177272989692591 11.906152811934412 -9.788366950685605 0 0 0
966 1 12.111727565633911 10.091693370772937 -11.220843249040936 0 0 0
1052 1 10.087365111705742 9.76376284385163 -9.1685227555523 0 0 0
432 1 12.918469322093562 8.257515933527486 -12.587457481099912 0 0 1
1054 1 12.66420717608897 9.569974519095968 -8.850419569309508 0 0 0
548 1 11.615185578277002 10.53851188350163 -13.635961387923697 0 0 1
1128 1 -12.721270542924712 13.883605049715083 -10.271417544404704 1 -1 0
1653 1 -10.925190444032417 14.112010496060847 -12.385727464762216 0 -1 0
1133 1 -8.34003263812118 13.81004220818976 -11.955941085079706 0 0 0
1142 1 -6.049351599502967 13.647136328201448 -11.78571126997474 0 0 0
1003 1 -4.053551604954533 13.923102466047837 13.677629488171103 0 0 -1
1015 1 -1.5912278633916905 13.714702359989275 -13.68629604975732 0 0 0
1305 1 5.407132679365377 14.130049361025822 -8.95446945179292 0 -1 0
1021 1 7.9231997677563175 13.95216000053668 -8.740833247589416 0 0 0
950 1 10.343748804733808 13.646285592539517 -8.382062433114083 0 0 0
1314 1 9.785529455214045 14.25145496000821 -10.880133712324191 0 -1 0
959 1 12.296774475242971 13.988818884065523 -10.592018920740266 0 0 0
1654 1 -8.79634151610827 -13.607020234050632 -8.24272261922857 0 0 0
1312 1 -13.505523997929995 -9.222262761686544 -8.169244035425042 1 0 0
1634 1 -11.120509708876456 -9.529281117219034 -7.831121205914237 0 0 0
1632 1 -12.095235000129348 -11.682522805225194 -7.179327633318276 0 0 0
1776 1 -12.520938548404548 -10.452738414004168 -3.396777697125085 0 0 0
1793 1 -13.066364195176876 -9.928909626350588 -5.811142187353294 0 0 0
1794 1 -9.263617768711228 -12.411857028735403 -4.560509297124902 0 0 0
1611 1 -9.771087642357058 -11.82988585529506 -7.008461630382118 0 0 0
1517 1 -13.236036802366927 -13.83005513959224 -6.511445906360143 1 0 0
1778 1 -10.051335212819257 -10.714401558054034 -3.1387916357927317 0 0 0
1777 1 -11.735690129852944 -12.254409185838085 -4.865101428582394 0 0 0
1613 1 -10.57163372312636 -10.09240471402343 -5.569208996099615 0 0 0
1795 1 -8.61541010376971 -9.782005638785138 -7.63077965646385 0 0 0
1791 1 -10.736205277430349 -13.990905146237944 -6.151101325227284 0 0 0
1868 1 -13.616260985422555 -12.596097522382868 -2.849022467037077 0 0 0
1523 1 -8.314447698617716 -14.29689550508269 -5.929711758200241 0 1 0
1635 1 -8.10475172049166 -10.182088151709811 -5.1754048177629475 0 0 0
1135 1 -6.338009039253949 -13.944948836056454 -8.119866971934904 0 1 0
1658 1 -6.197245091662129 -9.981421788899565 -7.547076096920851 0 0 0
1807 1 -6.623207105374959 -12.718531196441539 -4.299880807105804 0 0 0
1808 1 -4.826012151392298 -12.405480247655056 -6.332472807129016 0 0 0
1660 1 -3.762973601043491 -10.248740104214491 -7.087616536574257 0 0 0
1323 1 -7.192262880149482 -12.090956071121985 -6.757087968149438 0 1 0
1525 1 -4.19574452995435 -12.780144911635709 -3.959813198938898 0 1 0
1810 1 -3.121135700678945 -10.714532820785061 -4.824321714378279 0 0 0
1860 1 -4.327455502311038 -9.18380674862982 -3.3094705635833996 0 0 0
1856 1 -7.588744031881807 -10.767339135112982 -2.731086508698736 0 0 0
1796 1 -5.762579929152906 -10.575648085080298 -5.081782658293713 0 0 0
1533 1 -3.947302025503916 -14.117982782286187 -7.736063916182289 0 1 0
1677 1 -2.3429529925221217 -12.630839436104276 -6.192609253814767 0 0 0
1493 1 2.039123368634135 -12.30803811401678 -8.088769071143556 0 0 0
1679 1 0.07597292273714373 -12.859384011947188 -5.805498359977419 0 0 0
1475 1 -1.3184767811253284 -10.518531702965866 -6.772122244724725 0 0 0
1680 1 0.788399381148194 -13.317300883266542 -3.5451328068101766 0 0 0
1812 1 -0.7761730051430185 -11.094173916971469 -4.4584344156862645 0 0 0
1664 1 1.5705527193998723 -11.200980837425956 -4.268599911693753 0 0 0
1809 1 -1.8651435687243172 -13.110390321865045 -3.9132629450291994 0 0 0
1477 1 1.17297153768218 -10.607356930988882 -6.58167608857147 0 0 0
1691 1 2.61855211024198 -13.086086165399406 -5.666321857982233 0 0 0
1801 1 -1.6788250295917617 -9.228505247212155 -2.9902262144416305 0 0 0
1665 1 2.748318814817706 -9.059684988642708 -4.808486857597163 0 0 0
1643 1 0.7318541618126044 -9.489017323410728 -2.6948444750781686 0 0 0
1663 1 0.3441222948525784 -8.934629077155131 -5.0950185112568604 0 0 0
1662 1 -2.172949233876368 -8.69187297211408 -5.357670442376394 0 0 0
1297 1 5.540140447414922 -10.638652285101653 -8.434428939883118 0 0 0