LAMMPS data file via write_data, version 2 Aug 2023, timestep = 0, units = metal

1861 atoms
3 atom types

-13.924563192489446 13.924563192489446 xlo xhi
-14.300209901275439 14.300209901275439 ylo yhi
-13.72237105506694 13.72237105506694 zlo zhi

Masses

1 55.847
2 1.008
3 1.008

Atoms # atomic

122 1 -11.256454762709522 -12.731372612433667 -10.547260239001876 0 0 0
967 1 -12.607917158016896 -13.081932140419209 -13.062053018922661 1 0 0
1003 1 -13.435687943821089 -11.661065901149527 -11.309801295192276 1 0 0
124 1 -10.897372936382602 -11.385041504500181 -12.658663542580918 0 0 0
118 1 -8.710846321680982 -12.503306420951656 -11.871724245624257 0 0 0
117 1 -6.549029212650926 -13.637393289359549 -11.33542195443545 0 0 0
111 1 -6.188186504943283 -12.163137526422654 -13.280563001596768 0 0 0
18 1 -3.9756738332337758 -13.395880671336068 -12.525118339479636 0 0 0
690 1 -4.911089116102845 -11.881448087143255 -10.721847233690852 0 1 0
16 1 -0.2726028470141788 -12.726553241529333 -11.63504873633623 0 0 0
1 1 -2.427873197371836 -11.555935636487165 -12.276593270787197 0 0 0
125 1 -11.735646545493637 -10.010902121612062 -10.663095531106704 0 0 0
1002 1 -13.017887263502386 -10.191065998195153 -13.204036966381782 1 0 0
123 1 -11.386883093310729 -8.463262176410586 -12.678054003973388 0 0 0
1013 1 -0.16177517939388864 -4.186044472323825 -9.101475407076098 0 0 0
133 1 -9.277721411642752 -9.630826383153186 -12.02672159947715 0 0 0
135 1 -7.025695586921377 -10.785731360339296 -11.521810404272115 0 0 0
416 1 -6.803444018299196 -9.1758355155961 -13.43954386731948 0 0 1
112 1 -4.701530512601664 -10.310853022107597 -12.794975297502832 0 0 0
161 1 -5.477092269984487 -8.973927649561462 -10.890470047226188 0 0 0
2 1 -0.8838474270247705 -9.765690445023234 -11.720276947794165 0 0 0
136 1 -3.3106225932844566 -10.048146662388204 -10.34833808713584 0 0 0
1046 1 -12.388574048828362 -7.162271908064197 -10.848127957547039 1 0 0
1050 1 -13.516885137711048 -7.340232285218525 -13.368590739519714 1 0 0
132 1 -9.950958229476585 -6.569102103794344 -12.240377984042498 0 0 0
134 1 -7.635628057412327 -7.81337327017619 -11.51248402030618 0 0 0
159 1 -10.06754976069951 -8.091330878577963 -10.140273977441526 0 0 0
233 1 -5.103064595322627 -1.6703119154846942 -0.11728269752188858 0 0 0
74 1 -5.9262207383414065 -6.0552097999142855 -11.133817058080052 0 0 0
66 1 -5.306254031424615 -7.4932050247717275 -13.017593144464978 0 0 0
75 1 -3.705036463778125 -7.235239792993467 -10.486644399472308 0 0 0
79 1 -3.656508553288841 -5.713985655677652 -12.495747372882331 0 0 0
65 1 -2.98127430348004 -8.695209346631248 -12.488772703600054 0 0 0
7 1 -1.258883001133734 -6.921311178365248 -11.779004670040914 0 0 0
130 1 -12.004926399466076 -5.5794075377173264 -12.886579491786078 0 0 0
1098 1 -12.677366488590714 -4.3165535736679175 -11.06294373186812 1 0 0
70 1 -10.789988613334662 -3.561005421119207 -12.394307554622046 0 0 0
157 1 -10.553432624494704 -5.4506531749395535 -10.316767305820989 0 0 0
72 1 -8.126674976465875 -4.965493084929438 -11.706252645060772 0 0 0
71 1 -6.507065831796808 -3.2983158030611133 -11.186569079806585 0 0 0
77 1 -5.928640770630375 -4.571473116494804 -13.171791283921657 0 0 0
73 1 -4.172518084464773 -4.3101302544897635 -10.538559442914597 0 0 0
78 1 -4.257870824485117 -2.911375418898883 -12.491282686357936 0 0 0
80 1 -1.8639752576043414 -4.108023268147887 -11.733422834285756 0 0 0
68 1 -12.956489273825621 -2.656616774147702 -13.047703117016512 0 0 0
81 1 -11.19608954721419 -1.0007566593286459 -12.584590891178726 0 0 0
156 1 -12.703135844082112 -1.7854780439223301 -10.830622170791802 0 0 0
83 1 -10.681913416361413 -2.8623317524781164 -10.089468242157606 0 0 0
69 1 -8.960077450567605 -2.2046165599712015 -11.786436680581023 0 0 0
76 1 -6.503994280064142 -1.7427881532683962 -13.1540931352103 0 0 0
90 1 -6.212300924388537 -0.7641084620790988 -11.017466871061583 0 0 0
92 1 -4.221630395079005 -1.8460690672184725 -10.388175339701135 0 0 0
95 1 -3.7262386376007957 -0.7044375912242611 -12.45705912250382 0 0 0
1023 1 -1.686097130803045 -1.539395882361406 -11.603208752407628 0 0 0
662 1 -4.854818811618124 -0.28348851769932537 -2.052744574019938 0 0 0
988 1 -13.717934616251386 -13.116912615768694 -9.204376025461302 1 0 0
115 1 -12.087686832112034 -11.461408278556867 -8.764065509335754 0 0 0
431 1 -2.9664510844554215 -14.104657060054027 -1.6077005660081625 0 0 0
121 1 -9.738410530951814 -12.606149791875907 -8.126325554109414 0 0 0
630 1 -9.215899390157366 -14.084231131607078 -9.953419715499171 0 1 0
521 1 -7.606999837372947 -13.670533104191573 -7.469673244911336 0 1 0
128 1 -7.256621233376982 -12.382342549235817 -9.474951736657315 0 0 0
677 1 -5.070618431726423 -13.435798726204986 -8.835583631431255 0 1 0
513 1 -5.978137625916739 -12.041447132879142 -6.913099434548057 0 1 0
28 1 -3.5099494662867006 -11.625936977058688 -8.382308106414715 0 0 0
17 1 -2.687744112437521 -13.153198214793814 -10.220668166421577 0 0 0
30 1 -1.488478967816226 -12.697358249387944 -7.674343915309563 0 0 0
20 1 -0.6187864476715692 -14.10667898429855 -9.534413010242712 0 0 0
414 1 -8.122168165485455 -3.463568960487118 -13.663562909099586 0 0 1
153 1 -12.475003161500311 -8.668994796970974 -8.668233089922822 0 0 0
679 1 -12.661019019940364 -10.316826549387084 -6.737050063582329 0 1 0
126 1 -9.408274675934326 -11.146439779767128 -10.137321316677555 0 0 0
151 1 -10.31953539552202 -9.738654238058311 -8.257859546742022 0 0 0
147 1 -8.101943207307606 -10.972879777547806 -7.573611316262957 0 0 0
127 1 -7.868964210024164 -9.436114930905944 -9.556508583297928 0 0 0
701 1 -5.720896564779936 -10.614716388713095 -8.92662340299885 0 1 0
129 1 -4.06445323030465 -8.724420367608777 -8.532119029943779 0 0 0
162 1 -6.486659539599792 -9.370772654348151 -6.955054916392796 0 0 0
1043 1 -1.8121164359106459 -9.961839875355496 -7.836540553711606 0 0 0
19 1 -1.0798829223756528 -11.358378374856844 -9.781082392676336 0 0 0
152 1 -10.678536674799762 -6.9185565503736095 -8.300765563492238 0 0 0
149 1 -12.865856085289481 -5.9849518443006655 -8.906284156148862 0 0 0
143 1 -13.246828568120282 -7.430527531606084 -6.844880202369043 0 0 0
116 1 -8.500055125891151 -8.183713321588495 -7.6764716665718815 0 0 0
158 1 -8.293466173011211 -6.448929625823225 -9.713429604962545 0 0 0
160 1 -6.218059042251707 -7.644929142750834 -9.051108175666721 0 0 0
8 1 -4.316288647613458 -6.0556157056423 -8.529525683932206 0 0 0
180 1 -6.809381402614534 -6.319711688425864 -7.1235990572796775 0 0 0
300 1 -1.0507040179765177 -0.3101617733372617 -13.685063733438907 0 0 1
4 1 -1.6509340247286755 -8.528386860580179 -9.819743142287907 0 0 0
10 1 -2.233578843964443 -7.151458352229809 -7.89580036197988 0 0 0
11 1 -1.8907166724343956 -5.623233205566395 -9.801090713607275 0 0 0
175 1 -13.043767645751466 -3.06045645642347 -8.880520028777774 0 0 0
185 1 -11.027543023605848 -4.378069241091227 -8.167614191147457 0 0 0
187 1 -8.890080307530454 -5.3347886541295 -7.664506082522273 0 0 0
85 1 -8.468406857828484 -3.7660124386456157 -9.538816395184806 0 0 0
188 1 -7.1905903261694615 -3.6183757735098148 -7.081768683465313 0 0 0
87 1 -6.473920199565238 -4.886808611811153 -9.104417296284058 0 0 0
99 1 -4.665881518063729 -3.263860874637148 -8.303642033904097 0 0 0
1101 1 -0.4988792553651731 -5.386643991447389 -7.067390090433236 0 0 0
88 1 -2.4921799376821347 -4.337827194018715 -7.698262221987016 0 0 0
1012 1 -2.0948464731535665 -2.9426420549650807 -9.640849621652922 0 0 0
15 1 -0.5545607350745207 -2.304358090709739 -0.9158125176055059 0 0 0
82 1 -10.735873825849847 -0.33641787628139674 -10.321271396993948 0 0 0
182 1 -13.368003346139888 -0.381498182927146 -8.896069370393683 0 0 0
184 1 -11.311603173920957 -1.479134597608132 -8.293099371414591 0 0 0
186 1 -9.296732685714343 -2.6431381319965492 -7.622126999902649 0 0 0
84 1 -8.66520339247687 -1.1584065139525297 -9.500203314863251 0 0 0
626 1 -7.431118347134708 -0.9411415436767356 -7.0688613168083165 0 0 0
86 1 -6.62682200891048 -2.3028010166375807 -8.987685664638295 0 0 0
101 1 -4.974680698563336 -0.7073653205537838 -8.411884583594652 0 0 0
13 1 -0.7248909652259563 -2.791867737254819 -7.179135799737426 0 0 0
102 1 -2.810916186720174 -1.629219209058384 -7.931782014858056 0 0 0
103 1 -0.3340459478618829 -1.3684481165874516 -9.211611533879225 0 0 0
93 1 -2.456885040642616 -0.24194220958092139 -9.7694041720517 0 0 0
665 1 -12.38324032767345 -12.881610052611332 -6.717226825429837 0 1 0
523 1 -10.962225151693673 -12.708011661582841 -4.207156259790384 0 1 0
141 1 -13.155383501009606 -11.65322900577224 -4.676475749080332 0 0 0
534 1 -10.22015569905604 -13.998740555653901 -6.156875004707213 0 1 0
146 1 -8.484281034896824 -12.359488873266814 -5.499891166497616 0 0 0
486 1 -8.863275334789773 -13.853665190447478 -3.467460563289084 0 1 0
23 1 -6.30991344558933 -13.539815047110729 -4.99520845429387 0 0 0
25 1 -4.509184608483361 -11.703587121580954 -4.4603244823361425 0 0 0
26 1 -3.8346453421385824 -13.061384255748283 -6.319809159180441 0 0 0
36 1 -2.5347771854361554 -12.78265132916636 -3.729716463124632 0 0 0
27 1 -1.8569321619548322 -14.174868762035064 -5.608837056592252 0 0 0
229 1 -6.653095337182603 -1.9348447774529838 -2.645082081475312 0 0 0
140 1 -13.645247729505826 -8.868254573073493 -4.941667474644753 0 0 0
174 1 -11.34829193548288 -10.01791833089003 -4.458974992263718 0 0 0
522 1 -10.429377976236088 -11.270838534705197 -6.349484175247516 0 1 0
142 1 -8.882688824970039 -9.579988737381132 -5.695401361559783 0 0 0
22 1 -9.174104827316416 -11.01023698150195 -3.636088149441351 0 0 0
24 1 -6.631333414552456 -10.677005985717816 -5.001796645893323 0 0 0
43 1 -5.0304586921071515 -8.855886120252098 -4.396538533695953 0 0 0
154 1 -4.188738410396001 -10.22684239733518 -6.426746630057019 0 0 0
51 1 -2.0555555754395503 -11.274832382466581 -5.789732589545961 0 0 0
56 1 -0.6115065728995042 -9.556459959864402 -5.233959537048721 0 0 0
39 1 -3.0417608011363058 -9.962514265496988 -3.8734872691322693 0 0 0
44 1 -2.6005292749589337 -8.476066645317879 -5.886033154278527 0 0 0
145 1 -11.030299503806 -8.26768716178751 -6.229146329974313 0 0 0
171 1 -11.963550644412917 -7.0954506123463865 -4.324953257225236 0 0 0
150 1 -11.503417185683428 -5.633875297471171 -6.250755530660931 0 0 0
178 1 -9.304526061535496 -6.682234885426506 -5.681340731610476 0 0 0
173 1 -9.786535216252965 -8.171224943034616 -3.8089768015941594 0 0 0
37 1 -7.13582393263657 -7.778352344494403 -5.060682904377302 0 0 0
29 1 -4.746901217126913 -7.505588057278932 -6.504206740020591 0 0 0
190 1 -5.521512935223475 -6.117013037976729 -4.6622466878921625 0 0 0
38 1 -3.3745870730864276 -7.195299574870225 -3.9341653177755536 0 0 0
100 1 -0.8762753169059714 -6.794994317331427 -5.281667009428578 0 0 0
55 1 -3.056248328310023 -5.851221934641885 -5.820804477799106 0 0 0
176 1 -13.575398369103343 -4.580389416554379 -7.030174042884779 0 0 0
170 1 -12.312747643465192 -4.283527821972758 -4.363140879864366 0 0 0
209 1 -11.892529368881506 -2.8127216528835337 -6.395110297697002 0 0 0
177 1 -9.742872099110915 -3.9240502165723736 -5.7095714317078095 0 0 0
179 1 -7.550612298176523 -4.973528826019082 -5.083953103878029 0 0 0
204 1 -10.23318815024601 -5.458688042307134 -3.8235261687106448 0 0 0
189 1 -5.03761972950336 -4.714324009946461 -6.522599807044454 0 0 0
213 1 -5.9197410417794 -3.3119921461298105 -4.652921647231345 0 0 0
12 1 -3.7310389587493145 -4.447203637732155 -4.086711501866981 0 0 0
1051 1 -1.2394298507782366 -4.089001229195016 -5.289530052036094 0 0 0
106 1 -3.277715021107433 -2.9874830385649815 -5.886022340541686 0 0 0
537 1 -2.712464062434046 -1.5194318029823606 -1.485119757274152 0 0 0
201 1 -12.505218660410705 -1.5512757151308971 -4.413934561983906 0 0 0
203 1 -10.515410296588835 -2.5844945564280835 -3.8323848799662876 0 0 0
1147 1 -0.1011619943389892 -0.9090948292866958 -2.8948813483829507 0 0 0
210 1 -10.065013980091347 -1.1595815718003575 -5.6793752045210635 0 0 0
211 1 -7.968056894686309 -2.1827186962641854 -5.097364146672222 0 0 0
98 1 -3.5525206555394337 -0.340017747592956 -5.883384319811162 0 0 0
97 1 -5.392991516422121 -1.8987897969767502 -6.491264351618302 0 0 0
228 1 -4.064243845518504 -1.6907341182531237 -3.854281084213506 0 0 0
212 1 -5.999641351206942 -0.6099191316374029 -4.5801429633952715 0 0 0
108 1 -1.4795797434417164 -1.2262593407970197 -5.2516474886589055 0 0 0
497 1 -11.3382374790529 -14.12393201373355 -2.165342621216146 0 1 0
40 1 -0.030149360883761744 -12.534009148055029 -4.93216022111619 0 0 0
163 1 -13.533583391535105 -13.095171030156799 -2.7950749034479827 0 0 0
168 1 -9.671190088719172 -12.360280451250297 -1.6647719608288227 0 0 0
935 1 -7.571489046896604 -13.260309676847381 -0.958926792148393 0 1 0
494 1 -7.088090028237263 -11.965649895644816 -2.997571889892857 0 1 0
474 1 -5.766153911652522 -11.714064824247753 -0.37150880174656287 0 1 0
483 1 -5.058504190887675 -13.115844872235332 -2.2416576601515086 0 1 0
1052 1 -0.16602915183234224 -8.11712519767941 -7.210934771330706 0 0 0
470 1 -0.5411621615288276 -13.902594530273792 -2.9633950137775216 0 1 0
48 1 -1.2371661629568393 -12.3989411587468 -1.1753166012201497 0 0 0
137 1 -11.786434349553577 -11.25013620320362 -2.3338034051467123 0 0 0
461 1 -12.676302943922977 -10.007101736112435 -0.36938941089159627 0 0 0
164 1 -12.13854912434202 -12.682183236626036 -0.3297620216726944 0 0 0
199 1 -10.007594435286112 -9.631614235662525 -1.7499854705773252 0 0 0
169 1 -7.92684454788947 -10.582942263994921 -1.1387923136910771 0 0 0
181 1 -7.416476540485394 -9.213170086056014 -3.131113594069763 0 0 0
45 1 -6.185157490014165 -8.948884446316375 -0.5146108906753444 0 0 0
33 1 -5.441047891179114 -10.214747562817756 -2.4634554416237293 0 0 0
35 1 -3.4207001595524194 -11.399121848841938 -1.8521291384653544 0 0 0
34 1 -0.9688654301394344 -11.079949840872763 -3.1957677594057063 0 0 0
46 1 -1.596755365942096 -9.77015416722504 -1.3423913252308317 0 0 0
198 1 -12.201500299916832 -8.579271170595595 -2.377553551069056 0 0 0
191 1 -12.884050823818502 -7.161622375059223 -0.43647788270483723 0 0 0
172 1 -10.526751381724509 -6.835179751504117 -1.8055478055119938 0 0 0
206 1 -8.192579044385667 -7.810601070353685 -1.2416347601764066 0 0 0
49 1 -8.101779979778746 -6.386906784994938 -3.1779337320563545 0 0 0
942 1 -13.110844330966561 -0.14054659205816122 -2.4782953341727705 1 0 0
32 1 -3.6868735808230504 -8.532249826768856 -1.9537898789144084 0 0 0
207 1 -6.51783182349333 -6.112070062224259 -0.6089477086588868 0 0 0
42 1 -5.820809374152578 -7.565922353634039 -2.506012262640116 0 0 0
50 1 -1.1708334266922105 -8.275702874386578 -3.2397133011937864 0 0 0
60 1 -2.002280331964645 -6.939823026861985 -1.422995748300801 0 0 0
192 1 -12.639540534736739 -5.692513397085364 -2.309908760537521 0 0 0
216 1 -13.251083754067011 -4.30570771395532 -0.5047160878784247 0 0 0
196 1 -10.82821027827748 -4.044041508087004 -1.8513757032749272 0 0 0
202 1 -12.976208903656959 -2.8004621715604614 -2.423766792173618 0 0 0
205 1 -8.462203589542241 -3.70686205285911 -3.1020937273748217 0 0 0
197 1 -8.817462266762579 -5.134793097387268 -1.2202972595874204 0 0 0
415 1 -7.487069930340193 -6.345566246600259 -13.66589265054591 0 0 1
54 1 -4.139771358325627 -5.8788444778462345 -2.0062040916706874 0 0 0
223 1 -6.898927409503207 -3.5035309150758156 -0.5926325691077654 0 0 0
214 1 -4.493908687262737 -3.174273629630269 -2.096096600751711 0 0 0
230 1 -6.332214126794953 -4.82889402719503 -2.638689330829223 0 0 0
61 1 -0.228883611619505 -5.131303019777217 -0.8523021820872607 0 0 0
14 1 -1.6286196973917129 -5.561582276586838 -3.342318254063324 0 0 0
109 1 -2.3130973286977206 -4.107727785376744 -1.5588551569674323 0 0 0
107 1 -1.9731619996074183 -2.7004283657305113 -3.6110835825520695 0 0 0
554 1 -12.036001806536191 -0.07953419171921183 -6.365785025860443 0 0 0
220 1 -11.155515339629904 -1.265938714291213 -1.7070416056644824 0 0 0
215 1 -13.606298750869913 -1.5062271541222874 -0.39042994284900523 0 0 0
227 1 -8.737277378341275 -0.9103339485608988 -3.2366852588347736 0 0 0
232 1 -7.339849095247541 -0.6087968890991835 -0.7070280938734044 0 0 0
222 1 -9.054635578171819 -2.2907958381327163 -1.2021210774272024 0 0 0
224 1 -4.826490547135332 -4.434013957864131 -0.03650874605358467 0 0 0
297 1 -0.18095731789240688 -11.294957252444254 -13.57809265814281 0 0 1
120 1 -10.606496348540205 -14.190474134183942 -12.348504925943283 0 0 0
167 1 -13.899342703851918 -10.225846812545079 -2.9071892521502303 0 0 0
678 1 -11.532148477587974 -14.250709823706375 -8.58080538992111 0 1 0
58 1 -4.387963275673995 -7.25285755926494 -0.0094085895561129 0 0 0
460 1 -10.885808220662176 -12.35683369539365 2.1875612564810822 0 0 0
723 1 -12.531498070265059 -14.031702335631609 1.7306641902761246 0 1 0
892 1 -8.76870637576171 -13.366988705651423 2.9739432254230067 0 1 0
447 1 -8.380640362210947 -11.98321489672753 0.8243115257907476 0 0 0
31 1 -9.937962222584884 -13.747198212020898 0.28903921053015225 0 0 0
436 1 -6.207277763193563 -12.96831207948548 1.5418310750849393 0 0 0
430 1 -4.393533823871019 -11.355269035189414 2.0791090855841254 0 0 0
472 1 -3.664331779395752 -12.662009697590683 0.2952058229140242 0 1 0
270 1 -4.531392004690799 -0.0821064652317176 4.39589460457341 0 0 0
243 1 -2.3733581223304636 -12.511454370319093 2.7449290730196623 0 0 0
711 1 -1.6792476703658537 -13.851453759614195 0.830118648911327 0 1 0
1820 1 -0.25352883278285354 -13.641407032623324 3.3030095838438633 0 1 0
451 1 -12.889641102225152 -11.339114936566645 1.7568205045733265 0 0 0
458 1 -11.222972377785291 -9.509139682898086 2.0504177895559756 0 0 0
450 1 -13.23978908060815 -8.497844418354372 1.5543696080359872 0 0 0
465 1 -13.869573814141766 -9.949359858204105 3.5905044399536408 0 0 0
438 1 -10.417090394780292 -10.955312069380422 0.15985408138327983 0 0 0
445 1 -9.108461736582685 -10.691237268819688 2.7530419452838792 0 0 0
200 1 -8.61145792185147 -9.300934514736898 0.8358436038834558 0 0 0
434 1 -7.362588552651681 -8.872999238215113 3.3060696341750635 0 0 0
435 1 -6.56828369453592 -10.260033857289724 1.468057789395722 0 0 0
429 1 -4.908519684720229 -8.481132139548894 1.966229527233832 0 0 0
1351 1 -13.866610959087605 -13.496061852838611 11.934973584290805 1 0 0
59 1 -1.8680804062675325 -11.004452675900364 0.7996346717129832 0 0 0
241 1 -2.65766721471166 -9.709409933127775 2.559214306901385 0 0 0
1236 1 -0.7852489252488173 -10.787657985050274 3.3014616904101715 0 0 0
1237 1 -0.12062075100918968 -9.444056002022295 1.2574510618918193 0 0 0
456 1 -11.66056453931506 -6.696370322677365 2.014242383783298 0 0 0
437 1 -4.17101782512071 -14.135304389185862 2.270321232408076 0 0 0
444 1 -9.43622369530799 -7.751517970003853 2.604121654600032 0 0 0
443 1 -9.122398095423396 -6.376291449514941 0.7123988300452719 0 0 0
307 1 -7.6937735220171355 -6.039051008790295 3.229196095729204 0 0 0
57 1 -6.893197394879403 -7.419053657864956 1.3176594324244348 0 0 0
428 1 -5.072732725416692 -5.833407742291456 1.8139975997991922 0 0 0
63 1 -2.2880728756859785 -8.384506135202566 0.6002435602984804 0 0 0
239 1 -3.0484307485272204 -6.9417529859848015 2.5040900445804475 0 0 0
1240 1 -0.6172918886886816 -6.636361804819611 1.0727475325809834 0 0 0
1238 1 -1.0236891283045697 -7.951448693814983 3.1351192508311883 0 0 0
449 1 -13.64110478265516 -5.741714997286037 1.4300743462992997 0 0 0
454 1 -11.832929162851899 -3.978313536894076 1.9629218447494559 0 0 0
796 1 -13.80014500899022 -14.04306381686236 5.686013158855239 0 1 0
442 1 -9.89868145743647 -5.097837914860881 2.690870873321611 0 0 0
441 1 -9.411161098967549 -3.6755472498195854 0.6983509470861797 0 0 0
433 1 -7.2876711802774015 -4.831825395227584 1.399687235504917 0 0 0
305 1 -7.9938826921931865 -3.4158926341627485 3.3428008019325404 0 0 0
262 1 -5.561364338103148 -3.2159112779224657 1.9994293224997186 0 0 0
427 1 -3.3957933718911004 -4.230349608813732 2.4417647093466286 0 0 0
225 1 -2.713352796086717 -5.548910525928745 0.5457471128831859 0 0 0
1629 1 -0.9309639150259645 -3.7211669030775845 1.0497287552223469 0 0 0
237 1 -1.2833343331793206 -5.294126376130443 2.9509224951791424 0 0 0
234 1 -3.066339315133659 -2.785300306748102 0.4308621330467659 0 0 0
218 1 -11.15441197191828 -5.2779187670470336 0.17614500619639628 0 0 0
452 1 -12.189576615059257 -1.3006637852936862 1.9334365388550854 0 0 0
440 1 -10.154172697828528 -2.3642760373004084 2.6358824757263903 0 0 0
439 1 -9.8129115717513 -0.9062613614158632 0.7500230705114497 0 0 0
303 1 -8.29607700189207 -0.7060754641130771 3.240552109563666 0 0 0
432 1 -7.601409331991209 -2.0456100316414467 1.2804056849812806 0 0 0
260 1 -5.890539366811822 -0.34035204678543884 1.796300540336773 0 0 0
236 1 -3.865479729936105 -1.5821675831688644 2.5022568088309285 0 0 0
247 1 -1.56117234476719 -2.4906184016406367 3.0288441734320912 0 0 0
426 1 -1.3490569876922383 -1.029824551653224 0.9926071079065135 0 0 0
193 1 -10.694455006358211 -8.22199072974863 0.10340612191735055 0 0 0
828 1 -7.91803978582877 -14.251857561062613 7.379042399986822 0 1 0
393 1 -13.522326175270734 -12.54318298624806 3.767800973562938 0 0 0
401 1 -12.169848578853049 -12.129553080432633 6.200557914014659 0 0 0
848 1 -11.403597061004854 -13.705579384879504 4.265694890653254 0 1 0
446 1 -9.624913914117577 -11.97618661243013 4.692484026508364 0 0 0
312 1 -7.588664996969709 -12.916063673387688 5.428873356665015 0 0 0
355 1 -10.092670501688605 -13.166990097659703 6.782976302686272 0 0 0
311 1 -7.014250430416299 -11.664179045755928 3.491827244934548 0 0 0
268 1 -4.844301830048522 -12.699921072881443 4.173128037636673 0 0 0
278 1 -3.6460728659275574 -12.415178967766764 6.661844854538543 0 0 0
269 1 -5.43030563279112 -13.992725147622682 6.119534729203167 0 0 0
1190 1 -1.1676748326004187 -12.10631679138701 5.232145363244413 0 0 0
244 1 -2.7664504716239904 -13.873368482180325 4.71131672999039 0 0 0
459 1 -11.697459887950155 -10.970411099876918 4.0425405897920115 0 0 0
391 1 -12.428241097013693 -9.371237731018626 5.817426153327535 0 0 0
354 1 -10.542287580605842 -10.506048533299264 6.571921760695474 0 0 0
353 1 -9.926366390306256 -9.288299772340242 4.520493943385194 0 0 0
309 1 -7.8377993597758815 -10.194603206873204 5.36082583465852 0 0 0
267 1 -5.656631747622933 -11.261892712146015 5.944477061576389 0 0 0
266 1 -5.247650812032649 -9.85980780523635 3.8786502371467826 0 0 0
276 1 -4.006547025181103 -9.463569989989942 6.566504217646116 0 0 0
265 1 -5.9927864222098925 -8.463459555633973 5.93843808009127 0 0 0
242 1 -3.1726140392995514 -11.027822848007112 4.642540674302126 0 0 0
251 1 -1.4396398356509277 -9.184100277596116 5.138247434316408 0 0 0
457 1 -11.976020444874257 -8.140532231772205 3.9879935040670453 0 0 0
389 1 -12.632718697475397 -6.870116621764857 6.037558982547356 0 0 0
352 1 -10.544614431597225 -7.952487392273824 6.460124985693394 0 0 0
351 1 -10.19614249714757 -6.507948283394215 4.743030388903001 0 0 0
308 1 -8.108457241503306 -7.5174597208492715 5.111906572879221 0 0 0
264 1 -5.654815396541263 -7.1705869274712875 4.008216502490296 0 0 0
317 1 -5.987228703735662 -5.904178746577797 6.037416373461717 0 0 0
240 1 -3.4908432624554315 -8.307385888164315 4.363679576267774 0 0 0
274 1 -3.689035831906496 -7.056830151922779 6.405061017271901 0 0 0
249 1 -1.6110125170549274 -6.567914093279912 5.044392803376702 0 0 0
455 1 -12.329477847790415 -5.349680063173757 3.97163748156413 0 0 0
387 1 -12.681639426135677 -4.189783544467151 6.025345109817476 0 0 0
350 1 -10.5331525561013 -5.250122554936006 6.777573410206621 0 0 0
349 1 -10.303360696954158 -3.8204914018772858 4.66465725173116 0 0 0
306 1 -8.309694207319918 -5.064747001314773 5.3809143612050825 0 0 0
238 1 -3.759198678562502 -5.630708771587004 4.442060460110358 0 0 0
315 1 -6.506394943843656 -3.2580156030451235 5.871659938041486 0 0 0
263 1 -5.878470467620202 -4.584356670950264 3.8487159276825444 0 0 0
273 1 -4.278237755611752 -4.330975100481737 6.543791979148601 0 0 0
248 1 -1.886671248910858 -3.9774487486173076 5.086718661950414 0 0 0
453 1 -12.551493862989448 -2.7966750023389615 3.9510743086259694 0 0 0
385 1 -13.239814781433623 -1.4000375795342936 5.912740444681315 0 0 0
348 1 -11.037366125194803 -2.472915672975068 6.5245376678444345 0 0 0
347 1 -10.811214256356298 -1.0069919125793572 4.602953898535784 0 0 0
304 1 -8.724630135706086 -2.1836563834512877 5.326085385104069 0 0 0
272 1 -3.987480658609501 -2.9963608607671457 4.518393839532305 0 0 0
313 1 -6.999595942936179 -0.45380003697452587 5.785655112654414 0 0 0
261 1 -6.264441214732233 -1.7703731601100365 3.9617683842492717 0 0 0
271 1 -4.757456116043123 -1.6295890455262825 6.387168111043611 0 0 0
294 1 -1.2562297593972787 -5.413635562248858 13.563235686613087 0 0 0
246 1 -2.2463712645581406 -1.222099607149806 5.041569503207455 0 0 0
750 1 -12.651969428558123 -13.613372763758811 8.149524612383257 0 1 0
1291 1 -11.082785586298426 -11.7827337865419 8.738692073187217 1 0 0
1292 1 -13.614186816807084 -12.127646726165926 9.872434983051047 1 0 0
411 1 -8.856110739137078 -12.812943510431605 9.251149418391794 0 0 0
310 1 -8.465280596493109 -11.477132089123202 7.311985389559226 0 0 0
364 1 -6.889521176016367 -13.88868203851978 9.786149476091769 0 0 0
279 1 -4.1955856273972145 -13.764892518725349 8.551234652528937 0 0 0
321 1 -6.262133635913028 -12.518075796680659 8.06556290326725 0 0 0
288 1 -2.460514656943362 -12.17715894471972 9.013128717170197 0 0 0
253 1 -1.5211154833967253 -13.524437281617681 7.140103089140233 0 0 0
1194 1 -0.3695322447651339 -13.108078140187514 9.621172893496514 0 0 0
390 1 -11.893958682391295 -8.832151029935417 8.32739456835623 0 0 0
1290 1 -13.314481642827403 -10.654741248273435 7.798875073604723 1 0 0
400 1 -9.504001605263117 -10.001271138534022 9.029342627418522 0 0 0
363 1 -7.2800742829897835 -11.034076364442555 9.634628566615298 0 0 0
362 1 -8.498767191379137 -8.795219558170093 7.186692000686715 0 0 0
277 1 -4.411512733393868 -10.847563327768166 8.4807219694687 0 0 0
319 1 -6.552935915956557 -9.979129350615896 7.637051972543787 0 0 0
374 1 -5.688162288932908 -9.295886572449534 10.125174110171468 0 0 0
275 1 -3.441202477849064 -8.60685297312099 8.815376040295778 0 0 0
252 1 -2.01937015107171 -10.632063147066361 7.196120942461203 0 0 0
286 1 -1.3499618932048545 -9.866625538301161 9.385989919545786 0 0 0
1299 1 -12.673582310750975 -7.510130451528393 10.166041231500461 1 0 0
398 1 -10.3133445787517 -7.180963909205853 8.90682617655608 0 0 0
360 1 -8.281427033271484 -6.51924393166672 7.455362071923787 0 0 0
361 1 -7.909576197497898 -8.247835821055471 9.510200869898217 0 0 0
372 1 -6.792952247794389 -6.099261832232228 9.988747611260646 0 0 0
318 1 -5.8928669050001865 -7.572430626928849 8.097398339639241 0 0 0
330 1 -4.334445921353694 -5.759863012263809 8.501851651264829 0 0 0
250 1 -1.2012723494685016 -8.254289128982428 7.418701806179548 0 0 0
285 1 -1.907721707466477 -6.974828410348941 9.30235496285054 0 0 0
388 1 -12.728310083343928 -5.935676684974373 8.291767262726136 0 0 0
1296 1 -13.563979020309922 -4.388409208341054 10.044914161069926 1 0 0
396 1 -11.223407764198392 -3.885424576177659 8.673147769465103 0 0 0
386 1 -13.46225584984568 -2.888010020599131 7.976419193278936 0 0 0
358 1 -8.939888550374103 -3.5774081361132204 7.326292402397186 0 0 0
359 1 -9.073790104949413 -5.1084790757204885 9.290109566970614 0 0 0
370 1 -7.281104661068811 -3.3785053791392112 9.884477441609146 0 0 0
316 1 -6.654749535185094 -4.777637644073261 8.034481338418221 0 0 0
325 1 -4.913091868095359 -3.0475742952078786 8.42726107180884 0 0 0
284 1 -2.023832115508144 -5.472707216556852 7.176835584965605 0 0 0
1198 1 -0.30029582343640726 -3.751064145863996 7.8492554690248255 0 0 0
283 1 -2.5215056628351995 -4.207698266009103 9.091342344024355 0 0 0
293 1 -0.35758136469426205 -5.247374983611834 9.811542314836618 0 0 0
394 1 -11.711428936012048 -1.21640090161282 8.487165278915654 0 0 0
356 1 -9.324491184043827 -0.8634975738285426 7.331397658580254 0 0 0
357 1 -9.519452820654951 -2.2873372819829143 9.361374204180102 0 0 0
366 1 -7.888871705822808 -0.45269752709704214 9.736626272489051 0 0 0
314 1 -7.151932742761739 -1.9456520339888055 7.905891180463623 0 0 0
235 1 -3.467896621659337 -0.03955599732084636 0.47328209686234324 0 0 0
281 1 -3.291128830580499 -1.3891305675819208 8.860179405000558 0 0 0
282 1 -2.462988072150841 -2.648607801847035 7.048366937292901 0 0 0
254 1 -0.92669499837357 -1.0026051524240351 7.5406788788204935 0 0 0
256 1 -1.0575116470649313 -2.3576069397230697 9.631577897202515 0 0 0
410 1 -11.330949642802803 -13.189041003761659 10.685752240135283 0 0 0
424 1 -12.35059315421342 -11.6779376967162 12.307884864905361 0 0 0
378 1 -6.675001734428433 -0.10538039646505126 12.218409453375674 0 0 0
131 1 -10.15121306229848 -12.776695813720005 12.942463945792387 0 0 -1
376 1 -7.647463683459879 -12.451165196598254 11.63831993832947 0 0 0
320 1 -5.051859660583437 -12.300641698277083 10.503901852487623 0 0 0
335 1 -5.487975494941985 -13.633379628397545 12.384776843453661 0 0 0
333 1 -3.8900591876016897 -11.867825112524196 12.930976269999189 0 0 0
334 1 -3.001213940483833 -13.384907755811364 11.077638601563589 0 0 0
296 1 -1.8151394302685464 -13.080523728614697 13.383302236949167 0 0 0
423 1 -12.09365419700991 -10.300481987865581 10.317020189780244 0 0 0
422 1 -10.55030297942013 -9.843259551638159 12.867831125309205 0 0 0
1298 1 -12.820641936020223 -8.843149856421718 12.195527513369388 1 0 0
425 1 -9.871678003840158 -11.373667120284377 10.969306814788368 0 0 0
418 1 -8.167085039506283 -9.493545696553674 11.580500739467205 0 0 0
417 1 -8.33028154959538 -11.061089514539862 13.52009494232096 0 0 0
409 1 -6.094847025781666 -10.728589998915112 12.18674726488712 0 0 0
382 1 -4.426288843522364 -8.976154382223426 12.75047085534797 0 0 0
332 1 -3.4903675946810093 -10.395937591385021 10.901906293580033 0 0 0
287 1 -1.3768711620944636 -11.481910032713515 11.269174775418854 0 0 0
343 1 -2.1225601084626717 -10.05081301575392 13.160536581709543 0 0 0
342 1 -2.146786420637543 -8.534356517852279 11.243285444514605 0 0 0
421 1 -11.387825457338595 -6.974710144796218 12.597961055024012 0 0 0