LAMMPS data file via write_data, version 2 Aug 2023, timestep = 0, units = metal

1861 atoms
3 atom types

-13.463591624149608 13.463591624149608 xlo xhi
-13.980523364179666 13.980523364179666 ylo yhi
-14.628980371307698 14.628980371307698 zlo zhi

Masses

1 55.847
2 1.008
3 1.008

Atoms # atomic

1742 1 -9.634249661665315 -9.129562013269283 -10.744114910963857 0 0 0
1741 1 -9.273811661179378 -10.919949318052506 -12.434945542280502 0 0 0
1733 1 -8.513214443315778 -11.693058915560421 -10.367447193368125 0 0 0
1568 1 -12.14556501766161 -9.202742165886605 -10.390500554307557 0 0 0
1420 1 -9.071291422231392 -12.511467798629864 -14.24197747380393 0 1 0
1743 1 -10.808485552046537 -11.301999695842587 -10.102148829633567 0 0 0
1737 1 -11.780706231901524 -10.66470688409553 -12.354283815302637 0 0 0
1222 1 -10.204861823092525 -13.641451315675429 -9.872507230698535 0 1 0
1573 1 -12.956621046963269 -12.462443998935218 -10.353092959022373 1 1 0
1400 1 -8.37984734865677 -13.406159749530197 -12.055225678978452 0 1 0
909 1 -12.53635213698929 -9.911935604017028 -14.353244596462586 1 0 1
1 1 -10.823482987783658 -12.904518316950746 -12.304612926709444 0 1 1
1836 1 -8.00955343043044 -8.925465675707425 -13.100354204053158 0 0 0
1735 1 -10.493892065580464 -8.562599607946378 -12.881358330296049 0 0 0
1839 1 -10.185609463794576 -10.307731282884477 14.61768171075611 0 0 -1
1838 1 -6.924130687720773 -11.514180775313427 -12.63053771894825 0 0 0
1731 1 -7.165614067105621 -9.677059338565776 -10.951299002745781 0 0 0
1835 1 -5.633732498346522 -9.502855307345524 -13.384525292492961 0 0 0
1837 1 -4.628314645045958 -12.114911315220317 -12.943589208888064 0 0 0
1729 1 -4.82920173385566 -10.339370415988089 -11.26229228318058 0 0 0
1834 1 -3.2994654811664947 -9.955004263533759 -13.447752624349715 0 0 0
1399 1 -6.0401450183384195 -12.450470190489888 -10.539411541408207 0 1 0
1397 1 -3.5471502424847436 -12.892447852186468 -10.90660167006853 0 1 0
1728 1 -2.7352098663838067 -9.183907771389366 -9.861939608632504 0 0 0
1730 1 -5.046904414566486 -8.706107552112623 -9.663195617766506 0 0 0
764 1 -6.651757845881262 -13.183845290069744 -14.481328569966879 0 0 1
1727 1 -2.35131632503402 -10.899460764222496 -11.412176554942537 0 0 0
1738 1 -4.013460548392025 -11.224197233751628 -9.114637229705362 0 0 0
1418 1 -5.95163937034261 13.815892185561923 -12.339496799908524 0 0 0
1832 1 -2.1630939751991196 -12.562541071801 -13.210463394700774 0 0 0
1821 1 1.6722013545761314 -11.175942097130953 -14.049236399449384 0 0 0
1831 1 0.29097538105693843 -13.07346763393961 -13.45624413791969 0 0 0
1820 1 1.2972874433786092 -9.331164087505883 -12.3489697099784 0 0 0
1708 1 0.18552147630041738 -11.461886745817381 -11.60541537637648 0 0 0
775 1 -0.8529529900992792 -10.543142666201714 -13.78540912727032 0 0 1
1709 1 -0.3702639790160731 -9.655484838486753 -10.037313956555181 0 0 0
1707 1 2.1871269456578606 -10.174907085936137 -10.230268440458023 0 0 0
1724 1 0.9788848738969982 -12.298206134217107 -9.644498359116286 0 0 0
1830 1 -1.2187916979646278 -13.457235313524778 -11.077982756278995 0 0 0
1828 1 2.473629183520888 -12.01512416967294 -11.812971875015299 0 0 0
1710 1 -1.0576468902029 -8.825593307882833 -12.18737978962736 0 0 0
1829 1 2.784227338596139 -13.623027732129456 -13.665920860925276 0 0 0
1726 1 -1.5599839404511542 -11.693130918842717 -9.3335294455329 0 0 0
1807 1 0.38241559086661425 -8.57499918392712 -14.60310837264086 0 0 0
1382 1 1.1337752280373206 13.947892568299862 -11.252388919122573 0 0 0
1723 1 3.399368971068551 -12.713122978360202 -9.703090026386192 0 0 0
1817 1 6.080869405628878 -10.368727885147962 -12.672311750907086 0 0 0
1818 1 3.7074420346836874 -9.897687265473154 -12.626870585992123 0 0 0
1706 1 4.565851454776784 -10.708967569073236 -10.471016021213602 0 0 0
1704 1 7.050428945110799 -11.248669263785919 -10.620882302252213 0 0 0
1827 1 4.86220343171189 -12.452038102595893 -12.056899511686456 0 0 0
1801 1 8.16052704971381 -9.167275030397562 -11.236275531977586 0 0 0
1819 1 4.181202253383237 -11.627144868359977 -14.18289361547201 0 0 0
1747 1 7.2873536898744895 -13.074429300053097 -12.31479203687009 0 1 0
1379 1 5.8140898288218565 -13.465485177005133 -9.929000003608927 0 1 0
1803 1 5.704206744505363 -8.5965105778106 -11.048952758163535 0 0 0
1815 1 8.53549826757866 -11.045152530332889 -12.849990546711073 0 0 0
1860 1 6.526557104590186 -12.08439049879628 -14.373013672793888 0 0 0
1816 1 6.6967671216834646 -9.38916808353412 -8.896713239141151 0 0 0
1576 1 8.421523024248263 -13.937464371706813 -10.079241006004992 0 1 0
930 1 13.430713720966654 -12.59440224300574 -13.25333957897196 0 0 1
1799 1 12.799034993726028 -10.421984282210607 -11.787065444114367 0 0 0
1812 1 9.438905032188995 -11.802544191400456 -10.695123551752806 0 0 0
1853 1 11.682922851788888 -12.855678143139942 -11.010624762108314 0 0 0
1855 1 10.918900024147927 -11.47394621055391 -13.10232607548671 0 0 0
1851 1 12.06864754018924 -9.338425167504766 -13.84930043723106 0 0 0
1570 1 10.58276264202119 -9.672646726593245 -11.364166778423172 -1 0 0
1857 1 9.704231092405237 -8.916163863985771 -13.641998539085767 0 0 0
1813 1 9.762232453099724 -13.616364297353737 -12.480686720076628 0 0 0
1744 1 11.796958709720066 -11.06852507983858 -9.326664715229025 -1 0 0
1681 1 9.107174480125387 -10.039056718167513 -9.048724779524917 0 0 0
1736 1 -12.868885178864403 -8.096035000683823 -12.500388632992665 0 0 0
1734 1 -8.36281921798557 -7.138880143333362 -11.379792077612578 0 0 0
1543 1 -10.81018014134005 -6.821230171295852 -11.188761237639472 0 0 0
1697 1 -10.364872628996647 -3.8121336508590424 -13.855144413228722 0 0 0
1717 1 -9.34326732844653 -6.2826614333763295 -13.417927514280581 0 0 0
566 1 -11.645600483909183 -5.8951737342164385 -13.269326499208866 0 0 1
1522 1 -9.474428239745013 -4.511464260547008 -11.85321428510319 0 0 0
1842 1 -12.02067638909658 -4.122827410575759 -11.573063789943257 1 0 0
1541 1 -8.856537459224116 -5.4930316772058045 -9.619681041354525 0 0 0
1524 1 -12.885524764232954 -3.348229033795649 -13.75664467145049 0 0 0
1562 1 -13.18833015914005 -6.379831250891408 -10.834103537323479 0 0 0
1542 1 -11.184376446978092 -5.082481270837194 -9.47581057929242 0 0 0
1521 1 -9.984185790283572 -2.863092129044615 -10.116011479194857 0 0 0
1695 1 -8.071698123566868 -4.404232090034231 -14.239817509988294 0 0 0
1712 1 -3.5661187957160116 -8.230350993406478 -11.88793231579206 0 0 0
1714 1 -6.121059401071063 -7.614253327506356 -11.785588233524775 0 0 0
1716 1 -6.823731742386768 -6.864909477143205 -13.81829823982323 0 0 0
1520 1 -7.539553313177932 -3.390020099930304 -10.319621505072991 0 0 0
1693 1 -4.622695725334038 -5.681494767908012 -12.277429283344985 0 0 0
1715 1 -7.307997513986021 -5.175669348759612 -12.08503075663833 0 0 0
1713 1 -3.9238607917102186 -6.524128854578164 -9.998013739682412 0 0 0
1825 1 -4.267114401789065 -7.342559137598495 -13.901604520140225 0 0 0
1518 1 -5.037719041103751 -4.000867646234967 -10.658991288782275 0 0 0
1673 1 -3.4778108758942015 -3.6935598334904363 -13.10083007996374 0 0 0
1539 1 -6.277334658794772 -5.9598011651042935 -10.016797217729849 0 0 0
1694 1 -5.971698600784724 -3.270494780984455 -12.7885199109979 0 0 0
1692 1 -2.7121391756795052 -4.4551622616164455 -10.83278967870211 0 0 0
1732 1 -7.5024970944675085 -8.043222789833397 -9.318173022579048 0 0 0
1811 1 -5.707098104802806 -4.791959676649967 -14.38698782415708 0 0 0
1810 1 -2.27140847837431 -6.24852962163738 -12.437594189300487 0 0 0
1517 1 -2.9652020299626063 -2.7730172626640677 -9.1230503633582 0 0 0
1691 1 0.09847375079335663 -6.695510827005197 -12.850189572540435 0 0 0
1824 1 -1.101598262910196 -4.070612751089389 -13.207381930103407 0 0 0
1689 1 0.9206170050488502 -7.570044726899254 -10.643551415621829 0 0 0
1796 1 -0.4097782564590826 -4.922812305694128 -11.096180584988437 0 0 0
1711 1 -1.5464498119498504 -6.964910250083887 -10.296761024407605 0 0 0
596 1 1.1391250646873718 -4.658981068916994 -13.576328766975124 0 0 1
700 1 2.473908442841619 -7.35718057308825 -13.021551897059819 0 0 1
1806 1 1.9453919332330791 -5.5894544986365755 -11.270100069488544 0 0 0
1668 1 1.7668806883254877 -3.841913154928161 -9.687979733841551 0 0 0
1822 1 -1.9855589188938048 -8.009514333675217 -14.353113862902768 0 0 0
1495 1 -0.5054943635371227 -3.2538966537917577 -9.297550196053184 0 0 0
1669 1 0.9705729757344255 -2.957621227807538 -11.716408436788491 0 0 0
1667 1 2.918075722748725 -6.292869522659008 -9.165041786509347 0 0 0
1795 1 3.310121093851979 -3.5070199315289425 -11.99377093654179 0 0 0
1687 1 3.3311561979279496 -8.004809500764086 -10.95686568356846 0 0 0
787 1 7.273058927090666 -8.445996746005992 -13.417378742570053 0 0 1
1805 1 4.97327745061914 -7.80844169511565 -13.433334338269335 0 0 0
1802 1 7.732811199025029 -7.282833994350718 -9.613006927184692 0 0 0
1793 1 5.756776104734751 -3.9754672165708502 -12.364564374971836 0 0 0
1804 1 4.383891840459736 -6.045895750332759 -11.530420127890698 0 0 0
699 1 3.6047063107962423 -5.203143710895091 -13.632774653855426 0 0 1
1794 1 6.03917063920408 -5.646355885831973 -13.930806974376932 0 0 0
1792 1 6.999807520605959 -6.5772819335909904 -11.86007056974146 0 0 0
1781 1 8.096817056406714 -4.416259248355139 -12.515995654783394 0 0 0
1665 1 6.588837991567434 -4.776563284341599 -10.116010584682396 0 0 0
1648 1 4.2609882435790745 -4.309056777930406 -9.866350817807746 0 0 0
1846 1 8.564378604952982 -6.213714557258359 -14.087078389017424 0 0 0
1783 1 4.839168899313361 -3.184987151625702 -14.379623280281342 0 0 0
1688 1 5.419177762614005 -6.8136559748296595 -9.434437341106499 0 0 0
1847 1 7.361460773911546 -3.6968020927786522 -14.532363496503674 0 0 0
1791 1 8.98937139399878 -5.177605308395625 -10.289720729623275 0 0 0
1788 1 12.345754029507638 -8.403779189530725 -10.226226374478172 0 0 0
1544 1 13.46327517821899 -4.477256783085695 -8.976265823824352 -1 0 0
1790 1 9.358270705610021 -7.105330872662645 -11.974287283114016 0 0 0
1800 1 10.11875646275438 -7.749649131518903 -9.731257452557177 0 0 0
1545 1 12.941880335143171 -5.455149243448371 -12.976860143824643 -1 0 0
1849 1 11.65023693432735 -7.444937781488764 -12.234387392662013 0 0 0
1779 1 10.61042579288543 -4.94020352270282 -12.728711904514853 0 0 0
1789 1 11.420044139489711 -5.755657348938023 -10.566261000241486 0 0 0
1777 1 12.542021347410252 -3.691825524093945 -11.247013087754684 0 0 0
1780 1 10.231504585723847 -3.160221165048757 -11.06728779104147 0 0 0
868 1 10.927414792937952 -6.794101009850737 -14.357831850802992 0 0 1
1696 1 -8.290568834816781 -2.516994917636879 -12.514587318147433 0 0 0
1719 1 -12.247277308788007 -2.371172438138485 -9.753281889602858 0 0 0
1501 1 -10.774785318426632 -2.087754094608707 -12.174006567823145 0 0 0
1523 1 -11.082405019915635 -0.3008391563297188 -10.509824102575642 0 0 0
1482 1 -9.493677904043565 0.1329185752578379 -12.805271063016841 0 0 0
1502 1 -9.946568852640981 1.7862436664698187 -11.049013348626003 0 0 0
1500 1 -8.698462356660126 -0.8083596264776212 -10.751352073086801 0 0 0
1658 1 -8.391262034013055 2.1592597470798918 -13.561010427420939 0 0 0
1761 1 -11.965293862520426 0.5768684969629927 -12.54467099037224 1 0 0
1660 1 -12.435271946615922 2.3772410449881196 -10.972450638954047 0 0 0
1698 1 -11.595264674060939 -1.29130607595493 -14.353342419665285 0 0 0
1503 1 -13.207234400962328 -1.54362904143081 -12.020240133589354 0 0 0
1504 1 -10.678412342256248 2.6480150066282224 -13.330912765912394 0 0 0
1678 1 -9.252392742424911 -1.7299717246745079 -14.54208854863905 0 0 0
1480 1 -7.601459857504321 1.2195934234517232 -11.420239800339386 0 0 0
1497 1 -3.936021991519949 -1.9524636201217653 -11.241260465070772 0 0 0
1675 1 -4.775227869275385 -1.1922234578782476 -13.494152711864137 0 0 0
1499 1 -6.218252959458813 -1.355116527583995 -10.963060235620523 0 0 0
1674 1 -5.1859255373935955 0.7255927185077518 -11.61543955471003 0 0 0
1676 1 -7.082885792726225 -0.5203159699986681 -13.082047405478342 0 0 0
1476 1 -2.9203304817175137 1.8371522359741732 -10.206254696759785 0 0 0
1656 1 -5.870099283050466 1.5433959814787048 -13.822105958880401 0 0 0
1654 1 -3.3609547440164267 0.8107885986933319 -13.968913458428188 0 0 0
1498 1 -4.279065906084069 -0.2552742571712976 -9.56798220826424 0 0 0
1672 1 -2.6037117620280466 0.12725505179908225 -11.9349896110311 0 0 0
1477 1 -5.340191318671737 2.3757662802655286 -9.959580002532862 0 0 0
1478 1 -6.593478279682665 0.2865711224061638 -9.174205089618098 0 0 0
1655 1 -3.6459596002825165 2.588558088813679 -12.216340228209607 0 0 0
1798 1 -2.25044716127122 -1.6408923377242761 -13.68488634034476 0 0 0
1785 1 2.39708586411645 -2.602607800305835 -14.164845775676543 0 0 0
1671 1 -1.528747883118271 -2.516261347604269 -11.438447247930156 0 0 0
1496 1 -1.7285672664736431 -0.7077416660672693 -9.74802556856044 0 0 0
1797 1 0.08044466175891785 -2.0578574693349587 -13.824092471619972 0 0 0
1670 1 0.7124458151223987 -1.1399348441717887 -10.137875734431933 0 0 0
1652 1 -0.17038453797681363 -0.5118302689649799 -12.145472109687738 0 0 0
1653 1 -1.316932635518663 2.2197526564525507 -12.494555921708434 0 0 0
1634 1 1.1419415949529306 1.6004577712060009 -12.836365844957449 0 0 0
1651 1 1.8090085948038226 0.8030121903366698 -10.664068442010878 0 0 0
1650 1 2.334255158138564 -0.890940480299589 -12.324166183872062 0 0 0
1474 1 -0.5507549557388387 1.2526769712026162 -10.505559223341077 0 0 0
1787 1 -1.0777876361595542 0.5730329915082066 -14.262693665733485 0 0 0
1649 1 3.170126581847846 -1.6969779349973937 -10.340005186140932 0 0 0
1786 1 1.189026321201892 -0.08008977241910031 -14.600172856194956 0 0 0
1632 1 3.501481895993223 1.3687297094870594 -13.108025181654497 0 0 0
1646 1 7.778737876220973 -2.6512148803203157 -10.69914901267731 0 0 0
1784 1 4.58362434722066 -1.4062270912736157 -12.691338567903461 0 0 0
1782 1 6.9765735391138755 -1.8763431377559208 -12.969357320126107 0 0 0
1630 1 5.41374774468412 -2.255572894305722 -10.700665292845743 0 0 0
1631 1 4.317672532963158 0.7301566528999679 -10.883591879622692 0 0 0
1774 1 5.83759798615344 0.8439879227030627 -13.1965227474759 0 0 0
1614 1 6.609779546380757 -0.050939558579585764 -11.208513998790654 0 0 0
1772 1 8.247022773842161 0.37377859247811784 -13.383059403115013 0 0 0
1426 1 8.482342412106838 1.2983512546170406 -9.814131315727064 0 0 0
1428 1 6.081399118355446 1.920885560386976 -9.454152281419601 0 0 0
1764 1 7.268242043451121 2.578058276910321 -12.122770866909189 0 0 0
1629 1 7.440827994147963 -0.8111050684906367 -9.178242965208664 0 0 0
1449 1 5.024828075051669 -0.5779192338418433 -8.85073512461856 0 0 0
1843 1 11.799383524991345 -2.8322425462642187 -13.311782198380165 0 0 0
1769 1 13.354099054368621 0.06384052631046977 -10.199324799469291 0 0 0
1628 1 8.9349840663136 -0.6754236481410398 -11.429491488409452 0 0 0
1766 1 9.203373812094533 2.436957452420353 -14.245666652371314 0 0 0
1626 1 12.259779150050125 -1.8269249707563766 -9.601282424663406 0 0 0
1770 1 11.306649193165132 -0.9727044204469841 -11.708140879607694 0 0 0
349 1 12.909784863145742 -0.7485226918510239 -14.190549163703482 -1 0 1
1771 1 9.424382832811997 -2.285138775530484 -13.158380570474602 0 0 0
1841 1 12.54794645661173 1.0489119065506252 -12.333404735572334 0 0 0
1610 1 10.945000568907005 0.7038444136864275 -10.007106383667775 0 0 0
1612 1 10.076359776760327 1.4982359324179306 -12.036907611528786 0 0 0
720 1 10.504853915262 -0.3591369714911856 -13.905735618819406 0 0 1
1627 1 9.81196535146481 -1.31073382394157 -9.346687572404683 0 0 0
512 1 11.482675655063662 1.8326440867456366 -14.458454651095948 0 0 1
1595 1 12.17181855865611 2.8059299058717446 -10.671055106678764 0 0 0
1461 1 -9.545666468691657 4.606569512000748 -13.953739681088715 0 0 0
1481 1 -11.146995892393042 4.46014250893708 -11.703850307119842 0 0 0
1483 1 -9.781109717394633 6.366072095348324 -12.292989161608833 0 0 0
1582 1 -11.387336466404612 6.080964350772119 -9.975278862587459 1 0 0
1749 1 -12.29486963988063 7.022869008898377 -12.013761417271851 1 0 0
1479 1 -8.577948921335924 3.7597107959430307 -11.908346246787724 0 0 0
1099 1 -8.952546752633577 5.517695111211905 -10.190917346014352 0 0 0
71 1 -12.101529596731423 5.052048701359004 -13.746507014847106 0 0 1
1285 1 -10.313069939008258 3.5499438087611086 -9.516433011944665 0 0 0
1401 1 -10.991834129100871 7.2838436643026885 -14.375781247541852 0 0 0
1462 1 -10.173843713479677 8.1899136026439 -10.506653250916962 0 0 0
1286 1 -12.689493322815398 4.081990980609769 -9.200419367663178 0 0 0
406 1 -13.257262847464057 8.05660212184023 -14.101703522225309 1 0 1
1641 1 -13.327764953937423 3.08563011232191 -13.164183126876534 0 0 0
1640 1 -8.236348292495828 6.664176468565175 -14.61845209983883 0 0 0
1262 1 -7.863053404815652 2.8682850655656704 -9.586939731801882 0 0 0
1263 1 -7.499538884558812 7.399742800793417 -10.787907256186823 0 0 0
1459 1 -7.139319261795368 5.729966926646879 -12.492943993096535 0 0 0
1657 1 -6.124830470713206 3.273187574000863 -12.09044965150311 0 0 0
1264 1 -6.401196440280688 4.940346708525672 -10.349870602502588 0 0 0
1457 1 -3.758379027980233 4.294479064727858 -10.612201527713337 0 0 0
1458 1 -5.095055507997159 7.044296630527578 -10.995343523957825 0 0 0
1639 1 -4.664202555647508 5.187446680362006 -12.732159177372091 0 0 0
251 1 -6.929260999070217 4.149426895100154 -14.13975834178516 0 0 1
1621 1 -3.374217676630808 7.246121169335348 -13.15736764721473 0 0 0
1438 1 -5.9793173480870045 7.825096380490921 -13.00397806342516 0 0 0
1435 1 -2.781191951804468 8.00972476652977 -9.449667270001271 0 0 0
1436 1 -2.4242403040673075 6.398817627521845 -11.133824582681562 0 0 0
1638 1 -4.581137470133367 3.422804091241451 -14.394746035283093 0 0 0
1637 1 -2.207999706086797 4.6954950932848245 -12.831922616627011 0 0 0
1455 1 -1.3137640483767186 3.7706341020777874 -10.658775329279957 0 0 0
1434 1 0.19333852445298838 5.777341449016175 -11.158840760078336 0 0 0
1620 1 -0.8718700941161206 6.499649252550521 -13.313706335173288 0 0 0
1635 1 0.1833416829613732 4.0000443244363755 -13.092031321521034 0 0 0
1619 1 1.4593036982099559 7.585679925212764 -11.851026452659937 0 0 0
1603 1 1.4646460510308739 6.015522083469834 -13.597802287635975 0 0 0
1432 1 2.232673102084293 6.722037706631111 -9.664250122889886 0 0 0
1617 1 2.5545729181453325 3.557815751748402 -13.530805472043232 0 0 0
1618 1 1.0853610757444283 3.1025919317776367 -11.026462584351 0 0 0
1411 1 -0.2683419916498213 7.502777632752958 -9.671062557926785 0 0 0
1451 1 2.548060076361004 4.845638995863938 -11.430809378227 0 0 0
1590 1 2.8595788710738574 7.996400405046435 -14.279589360315185 0 0 0
1413 1 -1.0759651898691356 8.383925383604042 -11.733510802381815 0 0 0
1255 1 3.3332539286347433 2.8221442508559793 -9.396071653365967 0 0 0
1453 1 1.042431607197745 4.628910198524496 -9.001552139845337 0 0 0
511 1 5.108518878638964 3.2068824092974726 -13.889520695614218 0 0 1
1633 1 4.694116563891566 3.2705125735781113 -11.377936568940598 0 0 0
1600 1 3.9046432720729385 6.915456265517497 -11.996334037060215 0 0 0
1616 1 4.0206143253776006 5.469837950124679 -14.00176330984148 0 0 0
1615 1 6.154407380532508 5.562669203419032 -12.514619793303142 0 0 0
1613 1 6.925621665927878 4.15901410412336 -10.141774164979777 0 0 0
1584 1 8.160304821293096 6.531926375817017 -10.894639665427322 0 0 0
1430 1 4.610594409484488 5.476784859203926 -9.844016962641469 0 0 0
1407 1 5.866768093090645 7.724222938682017 -10.514592112420882 0 0 0
1763 1 7.426344429702688 4.045104336311622 -14.314532257137923 0 0 0
1601 1 5.314609990168684 7.405609039746535 -14.491955816724133 0 0 0
1758 1 7.368067543591167 8.266644171962978 -12.822441717695662 0 0 0
1599 1 8.867626684241241 4.840406512247073 -12.474223000935847 0 0 0
1760 1 13.36468188077622 4.796453045327757 -11.245665736928185 0 0 0
1754 1 12.387527960070678 5.947239792845794 -13.393743505401003 0 0 0
1586 1 10.00611699823208 6.960611698675043 -13.183519594579847 0 0 0
1265 1 12.924972101006254 6.674009981537521 -9.66286681007428 -1 0 0
1762 1 11.241516803579216 3.6356133936709707 -12.838127860484587 0 0 0
1597 1 9.58736514610812 3.438044706949695 -10.478483001182578 0 0 0
1757 1 10.976246421054718 5.467682015744655 -11.145281535368756 0 0 0
1752 1 11.97744543624842 7.7300750004498315 -11.674222978567506 0 0 0
1583 1 10.371507567710118 7.283769957872762 -9.41783757065835 0 0 0
1596 1 11.79122933322708 4.637862325196847 -9.085962362815426 0 0 0
1460 1 -8.490948937837526 8.35322764144035 -12.830622620356216 0 0 0
1421 1 -12.343626262613048 13.369182059788374 -11.453118701264296 0 0 0
1750 1 -12.622280478490543 8.689900878723533 -10.280861109970127 1 0 0
1441 1 -11.42641195575203 10.725472323161659 -10.987153915573831 0 0 0
1419 1 -8.77288085220685 10.041130403519746 -11.094446366756262 0 0 0
1442 1 -11.054374392002563 8.985144057246595 -12.695845632881124 0 0 0
763 1 -9.737059752348438 11.018106708033203 -13.342832203431648 0 -1 1
1203 1 -9.986118195962547 12.628261322965786 -11.569892683288206 0 0 0
1243 1 -8.802461585202913 11.903456399024991 -9.431305071560313 0 0 0
217 1 -12.321778667726338 11.625618580838696 -13.274618039069866 1 0 1
35 1 -8.178669782020496 12.877048842176455 -13.734868675146728 0 0 1
1224 1 -11.427151679751903 12.381463045071479 -9.131439245645609 0 0 0
1239 1 -5.36241047437718 8.553757359859736 -9.197537133392071 0 0 0
1221 1 -7.594151854161707 13.656536107221827 -9.925398275028947 0 0 0
1439 1 -7.4476108284295455 11.981627604937385 -11.687383412709066 0 0 0
1417 1 -7.165180977762896 10.26039374883778 -13.467075215329007 0 0 0
1623 1 -4.639841389222719 9.835736451149133 -13.636173796159385 0 0 0
1437 1 -6.2541981576146854 9.392691952738355 -11.281160162613062 0 0 0
1415 1 -3.703864461913332 8.980224221087107 -11.534648793922171 0 0 0
1416 1 -5.128739206016755 12.943767002632827 -10.022328571140783 0 0 0
1607 1 -4.8659402024893055 11.378061696127657 -11.815164261609642 0 0 0
1608 1 -5.570799302714249 12.20540445972127 -14.05003491826491 0 0 0
1218 1 -3.917131653530449 10.550447487359177 -9.741802834016273 0 0 0
1593 1 -3.2412245069935146 11.747905600435947 -14.238945922635564 0 0 0
1240 1 -6.458567053184444 11.195935428369806 -9.528826559035057 0 0 0
1398 1 -3.490102743968915 13.28936420939847 -12.475815009625666 0 0 0
1395 1 -2.619919255730501 12.535947919469324 -10.501535501121204 0 0 0
1396 1 -2.238426173847799 10.826640111773768 -12.153228619690676 0 0 0
1605 1 0.4133748017004599 8.550373854622203 -14.05145701449929 0 0 0
1606 1 -2.0792743980620436 9.171873877714136 -13.912288802321996 0 0 0
1833 1 -0.936064096399063 12.869370144878678 -12.784336855356225 0 -1 0
1394 1 0.21660318174918558 10.187055839256013 -12.339605554575472 0 0 0
1393 1 -0.0871233923028516 11.901221278085243 -10.598679425496133 0 0 0
1604 1 2.7765522858661456 9.57679336991597 -12.403889445384653 0 0 0
1383 1 1.551333114936904 12.214517899218245 -12.979092675818421 0 0 0
1412 1 1.1877589612044535 9.420171916042756 -10.249428591331489 0 0 0
1392 1 2.4171905332772248 11.362397162005239 -10.890867533174443 0 0 0
1414 1 -1.458624758948206 9.948139684206433 -9.939254807301511 0 0 0
1592 1 -0.8901902254773084 11.14831638673335 -14.545663394384261 0 0 0
1186 1 2.1457268436603805 13.174600013323035 -9.15904362519168 0 0 0
1409 1 3.647276054735748 8.703721354262454 -10.314488526050642 0 0 0
1602 1 5.088304815142738 8.997407401409314 -12.646382700152474 0 0 0
1859 1 7.547387616938291 13.190884586420959 -14.028536953528803 0 -1 0
1591 1 3.95618271007314 11.724624484502309 -13.179598078113168 0 0 0
1390 1 4.810206190288763 10.824763658115495 -11.07104668067412 0 0 0
1578 1 6.229041739604604 12.681737126179291 -11.549518058946914 0 0 0
1587 1 7.23041924272443 10.053615099946319 -11.200380201875223 0 0 0
1589 1 6.4291622303224045 11.03100656293387 -13.415734782583264 0 0 0
1381 1 3.6586342228847393 13.538160022566098 -11.571354012067562 0 0 0
1388 1 7.042108891327743 11.768782213554031 -9.446145240643922 0 0 0
1579 1 5.264670067895022 13.774397196175352 -13.687244617473688 0 0 0
1391 1 4.643722309807956 12.49740211411092 -9.277978401562002 0 0 0
1748 1 8.744599723448108 12.282031697592787 -11.821518231412133 0 0 0
1598 1 8.155291261880482 8.59485550105296 -8.995538402928819 0 0 0
300 1 8.931811739440793 10.519427441947405 -13.44716904044408 0 0 1
1408 1 5.750992092314796 9.476399401752088 -8.80894040162029 0 0 0
1746 1 13.400531871902647 9.680337496734202 -12.368614960594142 0 0 0
1753 1 9.638680770761084 8.908999769203527 -11.511562776142332 0 0 0
1571 1 13.17973029947684 11.499774207593413 -10.631026274017403 0 0 0
405 1 11.214176846208638 8.856894307501465 -13.997728446310532 0 0 1
1574 1 11.71491324778118 9.469667398241706 -10.022315413540703 0 0 0
1585 1 9.388006356096017 10.926832327709922 -9.671622367368137 0 0 0
319 1 11.027621020344885 12.865084492147792 -10.448804690830677 0 0 1
1751 1 11.111947480037408 10.635691021436722 -12.126373480710525 0 0 0
317 1 9.973943869135955 12.571603263541986 -14.12459512353096 0 0 1
1854 1 12.271068426855145 13.209715461087645 -12.732141667750607 0 -1 0
24 1 12.369231676114971 11.157596494222124 -14.258387442534778 -1 0 1
1372 1 -12.442857219417887 -11.475597783813818 -8.147049273214805 0 0 0
1422 1 -10.008467451781293 -11.889312857562883 -7.8580780348135955 0 1 0
1370 1 -10.98447905684764 -9.465374459350784 -8.354135807235679 0 0 0
1567 1 -9.405985931135522 -12.9905737090534 -5.698660053960454 0 0 0
1559 1 -8.73310333440062 -10.10690208927264 -8.582300543181125 0 0 0
1569 1 -11.929080329407572 -12.18502537963078 -5.526936218209528 0 0 0
1371 1 -12.799910512203473 -9.93308622726661 -5.960809634301313 0 0 0
1369 1 -10.442793815190981 -10.362286653260298 -6.147800397463081 0 0 0
1368 1 -9.536889674323051 -11.270323930382924 -3.9873349611192257 0 0 0
1360 1 -8.279554786665095 -9.278763761658357 -4.687628488157225 0 0 0
1168 1 -10.665386257972536 -8.558162275487035 -4.41153051151079 0 0 0
1178 1 -11.951276959020497 -10.659766556539672 -3.681337265955122 0 0 0
954 1 -8.462090356203548 -13.799683199026436 -3.675645747245806 0 1 0
1062 1 -11.802579510899223 -13.754554298879103 -7.473128904124823 0 1 0
1177 1 -10.962471431549718 -13.168972005171682 -3.3711104042621702 0 0 0
1566 1 -8.087653669533331 -10.922201826853083 -6.422479755425394 0 0 0
1740 1 -7.712287428133399 -12.681631815112723 -8.196865168559963 0 0 0
1361 1 -9.128552283856637 -8.39949102396019 -6.748338910408328 0 0 0
1739 1 -6.383395837197164 -10.633239090416051 -8.907227941890191 0 0 0
1166 1 -7.093215040241611 -11.739754387983968 -4.357614130252625 0 0 0
1557 1 -6.768421135898697 -9.013822004156378 -7.186298174586665 0 0 0
1357 1 -3.396923679579963 -10.380740681835402 -5.249148108918485 0 0 0
1359 1 -5.914235320366774 -9.694465501068418 -5.130656274044513 0 0 0
1565 1 -5.550506096105083 -11.47281079384481 -6.754136275615642 0 0 0
1555 1 -4.3243941212724035 -9.540976975839623 -7.539882530710649 0 0 0
1367 1 -4.810489660708235 -12.343747027877258 -4.500394457487168 0 0 0
1201 1 -3.1566869583388044 -12.034376116770883 -6.976474947851693 0 1 0
1202 1 -5.34512401526578 -13.204447320981911 -8.417359141598439 0 1 0
1041 1 -6.993284664085614 -13.396016029471047 -6.046429574991242 0 1 0
1200 1 -2.902133680675618 -13.718480868964198 -8.742211215731817 0 1 0
1356 1 -3.7832108737666985 -8.676426059275236 -3.4922577783515454 0 0 0
1564 1 -2.17783323826111 -12.891959532547915 -4.742983784963165 0 0 0
1553 1 -0.6644880605818315 -12.538849966005454 -7.155716850509616 0 0 0
1535 1 -1.888286657773806 -9.97631233571324 -7.608930304968824 0 0 0
1552 1 -1.0370209105503534 -10.76045162806299 -5.476162129653522 0 0 0
1563 1 0.22719058914048063 -13.462192647804594 -5.064745971554673 0 0 0
1533 1 0.5674720902097068 -10.623039824842477 -7.853901586413786 0 0 0
1551 1 1.9467027026618062 -13.00596320751821 -7.386935333896875 0 0 0
1336 1 1.1899085854079576 -9.530446029907377 -3.9494323655557277 0 0 0
1550 1 1.444760397967432 -11.34534168103347 -5.64045292748879 0 0 0
1510 1 2.727024992297302 -9.24881322873453 -6.378960207101379 0 0 0
1534 1 0.35830214813953454 -8.857644826749876 -6.240575366592173 0 0 0
1531 1 3.144490365801822 -10.995059978624921 -7.971530790257822 0 0 0
1338 1 -1.3199165668746193 -9.247436010276852 -3.8056267929741594 0 0 0
1353 1 2.74712769234095 13.94023466693521 -5.226126610283309 0 -1 0
1532 1 3.548697314474591 -10.173694700756082 -4.24204429530743 0 0 0
1685 1 4.23733784753227 -8.995219271099623 -8.838825531015345 0 0 0
1577 1 7.778737909382858 -12.138174927695841 -8.529530099430598 0 1 0
1826 1 5.470636014016208 -11.535131111160505 -8.304201433197074 0 0 0
1705 1 5.012605121851138 -9.772694537884346 -6.596824457067942 0 0 0
1530 1 5.967157245450682 -10.717363352535596 -4.477093483283701 0 0 0
1351 1 3.9062523432423646 -11.929858116384185 -5.790050713516793 0 0 0
1703 1 6.506979062193519 -12.47140780838804 -6.256762321304695 0 0 0
1814 1 7.53118597919493 -10.321125368975824 -6.790828723197358 0 0 0
1528 1 7.3042844311625785 -13.188516755837249 -3.9962524997450473 0 0 0
1160 1 4.791437829293624 -12.872970791833648 -3.7258745058974636 0 0 0
1529 1 4.2553172770470304 -13.636319323090051 -7.669766347004297 0 0 0
1506 1 8.673520367086383 -11.177393651884195 -4.74626383961389 0 0 0
1508 1 7.119384833545354 -8.577014816772405 -5.077520565677522 0 0 0
1722 1 9.069550209798187 -13.237022575780236 -6.299873464061134 0 0 0
1363 1 13.226298014047643 -9.345876755870101 -8.245764810645206 -1 0 0
1377 1 10.332474515929903 -12.916060913532458 -8.654422593008992 0 1 0
1702 1 10.085854847426283 -11.086360095120039 -7.039021851840229 0 0 0
1701 1 12.51395986712733 -12.403888915504941 -6.8954643354724725 0 0 0
1680 1 11.802190802638385 -9.880906314395375 -5.837226026854058 0 0 0
1682 1 9.572717573095435 -9.058825960760764 -5.471434581392774 0 0 0
937 1 11.15543873436685 -12.343691288217359 -4.708554182719439 -1 1 0
1661 1 10.879903008511114 -8.908918553801787 -7.812614544625593 0 0 0
1505 1 12.493050472140194 -10.285090644354291 -3.5169156206077243 0 0 0
1170 1 -13.131267257562335 -8.262390851594713 -4.178300202485998 0 0 0
1560 1 -9.937773406826905 -7.597065556671514 -8.958323150895183 0 0 0