LAMMPS data file via write_data, version 29 Sep 2021, timestep = 0

1865 atoms
3 atom types

-14.242663799972878 14.242663799972878 xlo xhi
-13.698005669951161 13.698005669951161 ylo yhi
-14.004766794130385 14.004766794130385 zlo zhi

Masses

1 55.847
2 1.008
3 1.008

Atoms # atomic

188 1 -11.622527380622142 -11.265970208424337 -12.738675081292158 0 0 0
49 1 -5.406103419171705 -13.021927303426956 -0.12928752392180698 0 0 0
196 1 -12.788193888033181 -13.545894779701333 -12.42858028419305 0 0 0
966 1 -14.133888123890074 -7.838860755083221 -10.461967501360132 1 0 0
206 1 -10.164391934591556 -13.103401568390444 -13.806682786131004 0 0 0
194 1 -9.498407287708124 -11.630198996435041 -11.48623516133782 0 0 0
551 1 -7.285199570990075 -0.37183235273025517 -0.2251131425317059 0 0 0
186 1 -6.825988161033693 -11.28357414056036 -12.825544293612513 0 0 0
205 1 -8.082044536789306 -13.447854490813686 -12.495767864126087 0 0 0
365 1 -4.538137424903635 -11.630261384259814 -11.996036227873478 0 0 1
364 1 -3.0918237992539748 -13.159287973711878 -13.407540547164825 0 0 1
204 1 -5.5130409324006635 -13.121933845327934 -13.696189837513627 0 0 0
200 1 -1.849739002677559 -11.12548870387741 -13.394944859182587 0 0 0
1693 1 -0.8801590238577841 -13.594384053353878 -12.357704746556067 0 1 1
201 1 -0.12133640015725256 -12.21773323680745 -9.941997426478753 0 0 0
942 1 -13.746023362856427 -6.9608762238311614 -12.779693279037698 1 0 0
154 1 -11.581663206029207 -7.467368818189709 -11.699233822733271 0 0 0
155 1 -12.845730874408613 -9.49260745492111 -11.631139077014186 0 0 0
187 1 -10.226256203376305 -9.143508926019198 -12.87578136735337 0 0 0
145 1 -8.94466066495031 -7.063404226037297 -12.964651281789235 0 0 0
143 1 -6.79494191148422 -7.58962894988816 -11.767821857454232 0 0 0
185 1 -8.14671799634254 -9.652184267474414 -11.746724919510337 0 0 0
38 1 -5.932523610989604 -1.9840114659869776 -1.3679618538288452 0 0 0
175 1 -5.473959175874464 -9.31387836643308 -12.993589379440108 0 0 0
176 1 -4.1431500128254495 -7.066168854133406 -13.088223841804531 0 0 0
183 1 -3.2689634499473055 -9.442093419283314 -11.940475853507147 0 0 0
173 1 -0.6302973399088625 -8.995794665542377 -13.196708111919829 0 0 0
174 1 -1.9711915050905944 -7.420824983649888 -12.027097260368837 0 0 0
146 1 -12.424963644196554 -4.8841787867763635 -12.871294548609356 0 0 0
144 1 -10.31809362887439 -5.293270137959679 -11.614341277620662 0 0 0
189 1 -13.676043457690227 -10.917784842174122 -13.822617598515945 0 0 0
132 1 -7.670160523395238 -5.076607545873445 -12.902446973408368 0 0 0
142 1 -5.5701068198264 -5.541307267506076 -11.796953737513443 0 0 0
24 1 -2.878801662073741 -4.8258463928691775 -13.140480129237163 0 0 0
26 1 -0.6745696676053221 -5.187712781492031 -11.914040840906846 0 0 0
76 1 -13.700353453656657 -3.112821221138633 -11.710006199852904 0 0 0
571 1 -12.439184665224754 -1.0724572593603057 -11.902598098509452 0 0 0
133 1 -8.965344920981762 -3.2694626998713705 -11.649840092426821 0 0 0
135 1 -11.055998292120107 -2.8675826945308973 -12.95420259889082 0 0 0
28 1 -9.75436978877163 -0.7307853039832999 -13.060824425055825 0 0 0
22 1 -6.471864522116475 -3.056149869736018 -13.042802881388342 0 0 0
29 1 -7.635026724499776 -1.1178116197560204 -11.910944535891732 0 0 0
131 1 -4.333641275553871 -3.2611759553169115 -11.819933396812 0 0 0
23 1 -5.127413266296454 -0.7650354815440981 -12.994745696793053 0 0 0
30 1 -2.9654105354939393 -1.0453109604623645 -11.901880465691017 0 0 0
25 1 -1.5950648927910063 -2.778306383052918 -13.080955899178667 0 0 0
1057 1 -0.3639481370892188 -0.6977398683952742 -13.015135560686224 0 0 0
164 1 -11.96090053475538 -12.115267080300804 -10.192424115667968 0 0 0
162 1 -9.844113621213285 -12.34490589067688 -9.056607779334485 0 0 0
161 1 -8.665344219562838 -10.099603402513479 -9.343386244259902 0 0 0
192 1 -7.200278949704823 -11.911966540709034 -10.326195520368115 0 0 0
184 1 -4.816457468308775 -12.163521877388977 -9.803630181491194 0 0 0
203 1 -2.2349138290208774 -11.827882550089942 -11.18937548651408 0 0 0
182 1 -2.677668383559203 -12.362648312712093 -8.883146158829692 0 0 0
273 1 -9.935513666803402 -4.540366431832979 -0.1654121097875727 0 0 0
93 1 -14.136946103085789 -3.8300838722825095 -9.413584095559518 0 0 0
108 1 -13.465203897927546 -10.378946011503153 -9.295943175108668 0 0 0
92 1 -12.122551565844113 -8.191971046899415 -9.430224221014814 0 0 0
73 1 -9.379462076994123 -7.755359551000201 -10.551938884089658 0 0 0
153 1 -10.718768805326436 -9.94084578028735 -10.28157648307451 0 0 0
151 1 -5.80325668249553 -9.778684453886074 -10.610623252237506 0 0 0
152 1 -7.277695506491452 -8.139654633512574 -9.483082319056772 0 0 0
141 1 -4.546602002362675 -7.661865702377124 -10.70747429453074 0 0 0
149 1 -3.5707351500318154 -10.114490845278219 -9.61585119343225 0 0 0
150 1 -5.012922497253934 -8.449693143014414 -8.4125977940725 0 0 0
181 1 -0.9842213903455814 -9.77228116783471 -10.851729203698675 0 0 0
3 1 -1.4328662436224047 -10.33367663103946 -8.554251131560296 0 0 0
139 1 -2.353368283202588 -8.091806069170783 -9.718839273778382 0 0 0
4 1 -0.3163154197110991 -8.216207615558147 -8.463712191796853 0 0 0
75 1 -11.6368631780096 -3.6421714201833932 -10.57797141496716 0 0 0
77 1 -12.902412199166298 -5.665695524792312 -10.486689622105656 0 0 0
40 1 -9.410588912563512 -0.147917444776974 -1.4001048931604512 0 0 0
57 1 -9.530989522347298 -3.854353274579596 -9.36747804442965 0 0 0
91 1 -10.680034945764579 -6.114280775568614 -9.397502626271537 0 0 0
74 1 -8.168271240542897 -5.618928525802865 -10.520216779612097 0 0 0
55 1 -6.7454956379670215 -3.565016809973402 -10.568214231446465 0 0 0
71 1 -6.069705485554929 -6.094624261795754 -9.463489344886806 0 0 0
130 1 -3.2779764975219905 -5.596874643042742 -10.697517291421182 0 0 0
53 1 -4.656381905590665 -3.9918302965067607 -9.502174230169505 0 0 0
129 1 -2.1775044398738466 -3.423591198326932 -10.660042238572647 0 0 0
128 1 -1.1567192728828033 -6.002615798539527 -9.56811313722871 0 0 0
58 1 -12.93251520769946 -1.801996913953337 -9.567340707268778 0 0 0
56 1 -10.28276676392871 -1.4196039943224132 -10.791113666659948 0 0 0
121 1 -8.155351405227261 -1.7910532362696046 -9.48860831502479 0 0 0
180 1 -3.3124664256570355 -1.7206394376831486 -2.582302873380243 0 0 0
54 1 -5.551111558372703 -1.4093193758958424 -10.621536953806071 0 0 0
52 1 -3.4856464412291093 -1.7873945113774106 -9.566808091505361 0 0 0
32 1 -0.7784552742153217 -1.4219367340706892 -10.824361479957451 0 0 0
107 1 -12.392936184758252 -12.812962829154081 -7.750741228540108 0 0 0
1104 1 -13.807185532213381 -10.922166006554813 -6.965506196620751 1 0 0
101 1 -11.693769957458027 -11.318629815703343 -5.657419316343573 0 0 0
163 1 -11.25986002036262 -10.598749951754641 -8.015297527962161 0 0 0
99 1 -9.100909741873306 -10.826078994013232 -6.95932251056051 0 0 0
166 1 -10.286610933263331 -13.076894146697528 -6.696865165417621 0 0 0
159 1 -6.441197700715704 -10.437316514107822 -8.357245621588335 0 0 0
160 1 -7.821606181763712 -12.783319273678508 -7.954968749355484 0 0 0
97 1 -6.795290192798042 -11.28150624562823 -6.003818680959057 0 0 0
191 1 -5.435040004705343 -12.554407174085716 -7.717386401822622 0 0 0
157 1 -4.002304792147763 -10.861886936619676 -7.34836685859211 0 0 0
190 1 -3.146528797886445 -13.212098318587932 -6.629178557215589 0 0 0
1 1 -0.5828518075085842 -12.765533542301284 -7.643842783001409 0 0 0
1105 1 -1.8917758500745379 -11.164224369837182 -6.218686782364603 0 0 0
60 1 -12.524623951923822 -8.737818466366262 -7.031161782775455 0 0 0
986 1 -13.823876246407185 -7.042240192883814 -5.9670145504426095 1 0 0
90 1 -10.04792957445775 -8.444434326269715 -8.14804163136183 0 0 0
81 1 -9.069831718658511 -7.19993247935121 -6.011246033304834 0 0 0
102 1 -10.378115713989992 -9.08290571784022 -5.816138202509851 0 0 0
88 1 -7.858913279342413 -8.914251127263505 -7.066395809430606 0 0 0
69 1 -4.243473206915098 -7.0497105260673845 -6.078921859526919 0 0 0
86 1 -5.470490629851284 -9.259636013335358 -6.08986713279303 0 0 0
148 1 -2.8232420462268593 -8.67407723450086 -7.238134887360357 0 0 0
1152 1 -0.7286023275924478 -8.999912663816282 -6.296683786028876 0 0 0
997 1 -13.376438556021915 -6.325594510074647 -8.259701167868297 1 0 0
110 1 -11.959394270290986 -4.326590067831567 -8.19998670718969 0 0 0
214 1 -12.575426644227283 -4.926100087542379 -5.8889373229741135 0 0 0
112 1 -9.86314942924672 -4.71103751806937 -6.998989385926568 0 0 0
89 1 -8.589147705076602 -6.380345617295116 -8.30648511675987 0 0 0
79 1 -11.284048162595523 -6.669441400917877 -6.950069666966073 0 0 0
87 1 -6.355874324026855 -6.808230980936357 -7.266461979760251 0 0 0
72 1 -7.395120371926648 -4.243013225345827 -8.26651685220916 0 0 0
114 1 -7.778633403555376 -5.0638060506966465 -5.890760509640582 0 0 0
140 1 -3.6936246091400697 -6.359796939898157 -8.315277019240709 0 0 0
70 1 -5.01167793662203 -4.7607210312903305 -7.1483261485827665 0 0 0
68 1 -2.959955916965539 -4.898505264353647 -5.910473029493479 0 0 0
138 1 -1.5554613856173187 -6.552727384845472 -7.201018636115674 0 0 0
51 1 -2.453838049979211 -4.219633613394201 -8.333581966406491 0 0 0
127 1 -0.2592290369884118 -4.484215731002259 -7.218062483211097 0 0 0
119 1 -13.208153058841782 -2.488439342209409 -7.206189187426244 0 0 0
604 1 -11.943058899505811 -0.4437856679227643 -7.192136117095133 0 0 0
111 1 -10.626018970357476 -2.0525276226846625 -8.346936294362514 0 0 0
113 1 -8.629204021220609 -2.49448603985444 -7.142370940017958 0 0 0
1056 1 -0.06961421864639661 -3.813216242679946 -9.599294674416429 0 0 0
109 1 -11.03523872454136 -2.9329142718184986 -5.999728669700946 0 0 0
120 1 -9.884799015585427 -0.6123008341302647 -5.890104130799958 0 0 0
123 1 -5.8953096965002345 -2.194639786055932 -8.314038610022038 0 0 0
122 1 -7.228911620279708 -0.5561770054282711 -7.24805200811549 0 0 0
209 1 -6.4130258107537115 -3.047403563811793 -6.05636307867085 0 0 0
125 1 -3.7623231711948293 -2.4830590986282086 -7.167682668874909 0 0 0
667 1 -5.1437073833630595 -0.8542520875816084 -5.958390097077849 0 0 0
31 1 -1.2759938481143411 -2.1029056319609314 -8.436944703800691 0 0 0
34 1 -2.520471537861134 -0.3910607641664896 -7.233432756718445 0 0 0
669 1 -0.2996002453277775 -0.6334052447303495 -6.078503906424528 0 0 0
36 1 -1.6214561109038996 -2.6931462582446493 -6.003088827135301 0 0 0
494 1 -12.931652086390551 -13.33792822572972 -5.482173065914493 0 1 0
45 1 -12.086656193131418 -11.79660223264271 -3.3700619943453596 0 0 0
234 1 -2.5685550171715814 -0.38393430947819596 -0.24686273110899215 0 0 0
484 1 -9.560712442115278 -11.410156793556768 -4.496683221970155 0 1 0
47 1 -7.258142958041795 -11.856013072810574 -3.585408803490024 0 0 0
105 1 -8.294242593039261 -13.415574773886547 -5.516392162652071 0 0 0
5 1 -4.689157782221724 -11.687814790087902 -4.908341302640869 0 0 0
158 1 -5.946817942083705 -13.627424831631833 -5.7078170652759965 0 0 0
1441 1 -0.8087603917771258 -13.441206460593149 -5.486840891585523 0 1 0
6 1 -2.417917709504298 -11.817878056708185 -3.8706078863208244 0 0 0
7 1 -0.16266168960367366 -12.05425672350798 -2.8772054059003747 0 0 0
44 1 -13.012048940656818 -9.483813428698513 -4.601297140029546 0 0 0
61 1 -11.823015060529368 -7.402880719137951 -4.640631316146219 0 0 0
63 1 -9.539164741878965 -7.706506553345731 -3.520348653248737 0 0 0
62 1 -10.75495378765822 -9.792130741926922 -3.4720322819223046 0 0 0
100 1 -8.093167136269214 -9.41263597796033 -4.563759773384575 0 0 0
83 1 -6.832163330543208 -7.427470215258185 -4.888598874632217 0 0 0
98 1 -5.909391370909425 -9.777396906398863 -3.6391331860862444 0 0 0
85 1 -3.3232854319829617 -9.377490736783965 -4.895028213735232 0 0 0
94 1 -4.627532017377536 -7.503350331043165 -3.7255532050496463 0 0 0
9 1 -2.1183159885753096 -7.344755506376906 -4.951209629717525 0 0 0
1134 1 -1.1469628390389186 -9.639185885797438 -3.9111033256063266 0 0 0
222 1 -11.767365698265163 -3.521372001168846 -3.6761332897650423 0 0 0
1038 1 -12.992832829723271 -5.649192737186032 -3.652489389925101 1 0 0
80 1 -10.36333049767832 -5.276998940431978 -4.596020836192068 0 0 0
228 1 -6.843858623838867 -3.583436708997999 -3.6289199906708927 0 0 0
82 1 -8.068983740291738 -5.748706584736541 -3.604567959029639 0 0 0
116 1 -5.572194139643159 -5.384204584775517 -4.809317525816626 0 0 0
14 1 -3.214364776397545 -5.6507717602657195 -3.721891531351373 0 0 0
50 1 -0.6477290116305472 -5.099210713858415 -4.921187225515823 0 0 0
117 1 -2.0901354704194386 -3.4730609189880965 -3.6807825275438297 0 0 0
558 1 -12.341436751905933 -1.141276391818531 -4.838848759188741 0 0 0
1002 1 -13.957937868567797 -3.1464078441180074 -4.817428145684993 1 0 0
226 1 -9.00298925405323 -3.258060423169047 -4.807454910653991 0 0 0
224 1 -10.370355271971231 -1.4719757925649049 -3.6628200289077153 0 0 0
210 1 -7.71694295244509 -1.1787123201150944 -4.77464563423495 0 0 0
195 1 -5.591154929084816 -1.5033121113061192 -3.747042688348026 0 0 0
115 1 -4.301352214931661 -3.278391636547271 -4.833733515555673 0 0 0
124 1 -2.900802998663945 -0.98106279061839 -4.741740449493356 0 0 0
165 1 -0.8172760195913309 -1.3896952175823198 -3.5687257966457437 0 0 0
207 1 -12.552040790875925 -12.581858360288928 -1.0218343121739846 0 0 0
1119 1 -13.3119228393384 -10.090795089327788 -2.2331986094480545 1 0 0
46 1 -11.051268673139706 -10.542551134595255 -1.1886178027164984 0 0 0
106 1 -10.00115644499165 -12.418731904912569 -2.2646544255867855 0 0 0
64 1 -8.621786471611273 -10.260948038613702 -2.3107985087178946 0 0 0
316 1 -3.792467069320198 -2.399618062044114 -0.21349758663425078 0 0 0
48 1 -7.66191565426232 -12.695157821926086 -1.1131342674703504 0 0 0
66 1 -6.401693364740571 -10.576816958484441 -1.2008274900892548 0 0 0
104 1 -5.120204021759834 -12.169326423787702 -2.470340477662363 0 0 0
10 1 -2.9201346611348953 -12.491847280485867 -1.6384284100598094 0 0 0
67 1 -4.161012262858344 -10.899909581062282 -0.1118521454910475 0 0 0
1026 1 -14.132991760837276 -3.770133714588704 -2.4432618564827404 1 0 0
12 1 -1.5226614803153442 -10.463497637481318 -1.4719394850141345 0 0 0
1132 1 -0.6946341304066124 -12.81981239656114 -0.6490691003011619 0 0 0
1163 1 -11.96169760306066 -8.076788541401612 -2.399779138840886 1 0 0
212 1 -9.874172432255044 -8.400671119384604 -1.180971207671849 0 0 0
65 1 -7.208484932424801 -8.07261793257246 -2.420889975677312 0 0 0
96 1 -3.74918396527611 -10.13147179626252 -2.53921904258897 0 0 0
220 1 -5.034174072800917 -8.49158642051519 -1.2938718494490136 0 0 0
265 1 -2.853196836227095 -8.846780638580839 -0.19676752918928742 0 0 0
8 1 -0.2118630777695909 -8.241818224900012 -1.460480100366821 0 0 0
95 1 -2.5175536997000005 -7.99431840092072 -2.647609618021125 0 0 0
208 1 -13.29581550430235 -6.510838728911797 -1.1689987771902377 0 0 0
215 1 -12.131370100613317 -4.274308851837247 -1.2371953459528875 0 0 0
1131 1 -14.153028520566098 -11.56551807435721 -4.512743146436785 1 0 0
216 1 -10.829350800628305 -5.8862540983004585 -2.286864312330046 0 0 0
217 1 -9.396023720029621 -3.8457904637564884 -2.425794499250463 0 0 0
415 1 -8.870333010521463 -10.89315345347207 -13.984052392638725 0 0 1
39 1 -8.289261726695912 -1.890742549061331 -2.4463191806518516 0 0 0
218 1 -8.519476728804026 -6.244694975668526 -1.2500542576502554 0 0 0
84 1 -5.965941901905019 -5.962924693571132 -2.3580633513259333 0 0 0
243 1 -7.258576914508621 -4.109546357527691 -1.2370012467933034 0 0 0
219 1 -6.358198203876884 -6.780673814624618 -0.0682581446737629 0 0 0
315 1 -5.026970964507802 -4.462209245879986 -0.1746023621250874 0 0 0
230 1 -3.866005953619542 -6.301061595865368 -1.2669352096819217 0 0 0
229 1 -4.609522642825452 -3.887329312010909 -2.435643871341819 0 0 0
16 1 -1.6162293415748223 -6.58456006472622 -0.2379983494582465 0 0 0
15 1 -1.1257646428186803 -5.908510580687132 -2.596334403872392 0 0 0
308 1 -0.28343278996875476 -4.4970920137111605 -0.1678297993437443 0 0 0
225 1 -2.433391383273813 -4.194552246136361 -1.3057143491758438 0 0 0
221 1 -12.932056905695898 -1.7601725581143288 -2.496383811753713 0 0 0
554 1 -12.043822594263519 -0.28579896843551467 -0.1478656727128005 0 0 0
239 1 -13.311284963883713 -2.49788274013984 -0.14541174479524166 0 0 0
244 1 -8.653576994024744 -2.507131691076358 -0.04433048064456813 0 0 0
1634 1 -1.2113299786487612 -2.062721076304859 -1.3290934121316837 0 0 0
41 1 -10.92049223933002 -2.0780408997094213 -1.1991919387633452 0 0 0
211 1 -12.593047792290454 -8.706799191941418 -0.084727863491878 0 0 0
213 1 -9.02973212275671 -11.095414800353632 -0.008544635808229728 0 0 0
134 1 -9.771457362050562 -4.675042698507168 -14.003389099506158 0 0 0
270 1 -7.702652278660433 -8.904820981337611 -0.022184731445181072 0 0 0
407 1 -12.253353276869555 -8.798775663580239 -13.997840353199665 0 0 1
249 1 -11.605569206498988 -11.291449486427695 1.230469813145712 0 0 0
248 1 -12.955611200827173 -13.475727447456784 1.4050538296191952 0 0 0
344 1 -7.9963273675475675 -1.7677160102041203 11.46218953571586 0 0 0
1242 1 -14.062419422485005 -3.8485253589975112 11.643999914976641 1 0 0
43 1 -10.386262625972384 -13.157838872677495 0.08107193786375788 0 0 0
261 1 -9.512434770923932 -11.742938886872984 2.4898744463709566 0 0 0
263 1 -6.845999340721831 -11.280571814382967 1.1686276566149996 0 0 0
247 1 -8.068780460419898 -13.460044190912754 1.4130545160035943 0 0 0
255 1 -4.689875345369003 -11.661327881012095 2.2555974062269204 0 0 0
254 1 -3.219378851647223 -13.301545680020984 0.9999610198550499 0 0 0
257 1 -1.9627178170815132 -11.320833396132947 0.8327324460249361 0 0 0
1349 1 -14.217411982547317 -7.814533822046127 3.5278972678943408 1 0 0
266 1 -13.061559875533362 -9.668977479098114 2.4401725230920928 0 0 0
1332 1 -13.817957668073548 -7.083985492017039 1.15226053370424 1 0 0
267 1 -11.608643234055736 -7.542218619185361 2.340847915329446 0 0 0
706 1 -14.064373052888477 -0.0066882702090858 5.543871724507108 0 0 0
268 1 -10.310064240405556 -9.33829877279314 1.2086906831434163 0 0 0
269 1 -9.062109583856419 -7.094744902879041 1.0389093829103206 0 0 0
303 1 -6.930379360039938 -7.331615702242267 2.162148670079814 0 0 0
262 1 -8.262114186438886 -9.591486240174943 2.32917140209919 0 0 0
328 1 -1.238284875056392 -2.0705533212008262 12.578075561874575 0 0 0
264 1 -5.596283393494376 -9.111068001861295 1.1196032570956742 0 0 0
305 1 -4.204710293798406 -7.071648005289743 1.0453693667436443 0 0 0
295 1 -3.411956317707183 -9.53420407330055 2.033873233088224 0 0 0
307 1 -2.0902706804217974 -7.350608843804746 2.156466890457546 0 0 0
13 1 -0.8271504117875246 -8.94498423768906 0.8977641689347493 0 0 0
271 1 -12.515998307315085 -4.928740040317313 1.0892694073852631 0 0 0
311 1 -10.323363273947468 -5.260961054662404 2.2773402686393087 0 0 0
313 1 -7.747857441227439 -4.921732807131317 1.0035844953846365 0 0 0
304 1 -5.538886794514127 -5.262338503713794 2.2651416962406135 0 0 0
306 1 -2.9611039437287214 -4.970701159529934 1.0725426891234235 0 0 0
429 1 -0.8024646413173091 -5.2632132625755474 2.112918070526069 0 0 0
42 1 -13.829353700343209 -3.228982619564114 2.290798672696143 0 0 0
1323 1 -12.465206272232424 -1.0681798173729362 2.097662887208818 1 0 0
312 1 -9.06297746961523 -3.1024125879363975 2.264226079247793 0 0 0
241 1 -11.200917702440988 -2.899244220070324 1.081160389891199 0 0 0
242 1 -9.960926017155124 -0.7392275665564316 0.9646649130996501 0 0 0
314 1 -6.353876739003772 -2.764971245490285 0.8291630872541678 0 0 0
236 1 -7.797257783463636 -0.9453608107078342 2.0731691851269805 0 0 0
421 1 -4.280729799378683 -3.183692432985387 2.132882431199553 0 0 0
235 1 -5.082089637506293 -0.7360047037441806 0.9623601987541051 0 0 0
420 1 -2.989206660857933 -1.0687890611049973 2.1529315240318727 0 0 0
418 1 -0.243585548328916 -0.6736271226500978 1.0126575948940744 0 0 0
419 1 -1.585612604062641 -2.833096829865754 0.8492394711346094 0 0 0
259 1 -12.013774399693977 -12.085035523923775 3.636880232147197 0 0 0
258 1 -13.28963849371259 -10.290351441808847 4.778754205296634 0 0 0
252 1 -9.962407800559134 -12.421896487965576 4.950860529965764 0 0 0
291 1 -8.580565827421985 -10.27942099199784 4.491209981159701 0 0 0
253 1 -7.252989198010027 -12.015844206407674 3.535322018138002 0 0 0
283 1 -5.066345382238524 -12.385593744628675 4.563149003669784 0 0 0
275 1 -2.8462591830781623 -12.759834039916475 5.532966946006445 0 0 0
285 1 -2.510024628477037 -12.0720544054637 3.1813810137434313 0 0 0
286 1 -1.6297197872613634 -10.565677147400454 5.602765327370266 0 0 0
287 1 -0.2656790790042969 -12.137863897220022 4.287248583247036 0 0 0
299 1 -12.096206804492008 -8.075733357105038 4.611141514312893 0 0 0
21 1 -7.306380636434684 -0.47222806441517307 13.883144499284603 0 0 -1
301 1 -9.520264318426467 -7.761940795123423 3.467123092021394 0 0 0
260 1 -10.801122235047536 -9.917811204245673 3.5648885562958395 0 0 0
293 1 -6.015903316648464 -9.88959860830012 3.431047960160969 0 0 0
292 1 -7.350582243083336 -8.096555675863364 4.513211256934957 0 0 0
294 1 -4.660618139871575 -7.70685576426399 3.3441018049676767 0 0 0
284 1 -3.7697299188151447 -10.225852470617152 4.406807698133102 0 0 0
297 1 -1.3224539038950507 -9.87961156668869 3.2721396771224125 0 0 0
296 1 -2.6042243887584977 -8.096865292043983 4.498458058711831 0 0 0
324 1 -3.3963870372563374 -1.930255242321591 11.463986558713673 0 0 0
309 1 -12.972377612811389 -5.713508889918997 3.43125560074842 0 0 0
310 1 -11.749707277220747 -3.5773217153688535 3.4613271871953852 0 0 0
300 1 -10.777674290343926 -6.030887023726483 4.579533355467214 0 0 0
425 1 -9.581670258934032 -3.9345097442034493 4.5080120431712505 0 0 0
423 1 -6.935259864357562 -3.5889251563499016 3.2608259271309503 0 0 0
302 1 -8.292605042329772 -5.711464541257455 3.3816021156759373 0 0 0
433 1 -6.0638167666217235 -6.0204063844059705 4.593738825622443 0 0 0
431 1 -3.421338351278461 -5.671098421555898 3.2615932393903453 0 0 0
432 1 -4.710291702439779 -3.974567052373006 4.400084927222233 0 0 0
442 1 -3.774714745537846 -6.364637648209321 5.661127802975484 0 0 0
430 1 -2.1238937464742733 -3.5503306944995607 3.2475714469008796 0 0 0
440 1 -1.214164820372165 -5.9465984432645485 4.570700515040345 0 0 0
378 1 -2.5115822224376902 -4.214194816865252 5.694053699768956 0 0 0
240 1 -12.99775280943097 -1.6952454840998996 4.481597625005291 0 0 0
237 1 -10.51946612880996 -1.4244152275849604 3.332626733892445 0 0 0
424 1 -8.226849060204053 -1.7472001681522844 4.33686615344998 0 0 0
422 1 -5.609880198750284 -1.4778241864170134 3.255740754966139 0 0 0
368 1 -3.452612993460912 -1.7608259969382107 4.463353783061693 0 0 0
366 1 -0.7906636661046598 -1.4288289957651976 3.2971232387845557 0 0 0
377 1 -1.2812556615436268 -2.127753900471305 5.58718945832385 0 0 0
277 1 -12.36846907520091 -12.66145193493283 6.102026985350252 0 0 0
278 1 -13.762182986427893 -11.026812104580369 7.1035089593968 0 0 0
457 1 -11.712872552817274 -11.432531974754049 8.212324313774376 0 0 0
289 1 -11.197866944026604 -10.58476357921895 5.913552338737611 0 0 0
280 1 -9.007544566739472 -10.838341768243076 7.083524175056047 0 0 0
279 1 -10.267830791459513 -13.05590119765625 7.266086216805812 0 0 0
282 1 -6.439765281033049 -10.590987124174726 5.839060189425103 0 0 0
281 1 -7.674257450872242 -12.721048424246312 5.870396426252684 0 0 0
455 1 -6.913636001234227 -11.513071983380623 7.956067194411075 0 0 0
453 1 -4.102401208007228 -10.966925953331167 6.885996173012307 0 0 0
739 1 -3.228132409328559 -13.37185708211171 7.827755364860048 0 1 0
274 1 -5.524023349284693 -13.177846647622317 7.025375150117673 0 0 0
276 1 -0.6096523416150461 -12.868625109804617 6.4549701046867565 0 0 0
451 1 -1.8494605013019054 -11.249300386675838 7.824337054961314 0 0 0
288 1 -12.512972230353192 -8.79715177308702 7.015133096916893 0 0 0
1310 1 -13.821009585282061 -7.0378136968795175 8.198840370053569 1 0 0
290 1 -9.939179125886948 -8.438778171624591 5.749236473120087 0 0 0
437 1 -11.231026144925348 -6.714091856252384 6.917383520142364 0 0 0
446 1 -9.044445716750161 -7.192803870783846 8.160649800688509 0 0 0
447 1 -10.34066727307003 -9.194681593175586 8.135506180085871 0 0 0
445 1 -7.764665757466069 -8.894313134856525 6.8160982123112195 0 0 0
444 1 -6.588459020294839 -6.761016999448675 6.845222172795976 0 0 0
443 1 -5.192851270431889 -8.483978704254335 5.6780524387427125 0 0 0
441 1 -2.9335465182566978 -8.762889902687451 6.776566555586262 0 0 0
454 1 -5.473037311644276 -9.219192881468132 8.049009040256434 0 0 0
390 1 -4.356900582401851 -7.170449540447639 7.818922897954954 0 0 0
439 1 -0.3379534280715788 -8.392179763664764 5.626468269918034 0 0 0
450 1 -0.6006638264714432 -9.10285431300982 7.9440022927655765 0 0 0
427 1 -12.10367681794245 -4.238958132538613 5.690011281546836 0 0 0
298 1 -13.414700305890129 -6.479899950492594 5.823284382257649 0 0 0
438 1 -12.43073763636876 -5.026440457654651 7.981362616469651 0 0 0
436 1 -10.08391377358451 -4.648858491194012 6.939191039013229 0 0 0
435 1 -8.664900775013077 -6.327788358977058 5.745155387829241 0 0 0
434 1 -7.397861918105743 -4.256917869735398 5.620940045205893 0 0 0
382 1 -7.708387591955559 -4.757809284768479 8.119378696655447 0 0 0
380 1 -5.202522838974803 -4.644583799137919 6.8200322696648765 0 0 0
389 1 -3.0572848548585014 -5.011426299052307 7.963231257159427 0 0 0
387 1 -0.27753238164356375 -4.456599847655264 6.781505092625325 0 0 0
388 1 -1.5731951282974297 -6.689593001777432 6.908225387724107 0 0 0
233 1 -12.071163735954155 -0.39733588602973846 6.9107642683666715 0 0 0
719 1 -13.325173549044665 -2.5518454392940857 6.839956991584669 0 0 0
27 1 -2.5515767806655116 -0.48194226583329147 13.835303856511802 0 0 -1
426 1 -10.743675802344724 -2.1688715579023867 5.690466813819286 0 0 0
374 1 -11.213423903367431 -2.895918514697481 8.046653958872115 0 0 0
373 1 -9.874609006353557 -0.6947916334498281 8.008054129454402 0 0 0
1395 1 -14.214451723685487 -11.71675014527669 2.5547340663399662 1 0 0
372 1 -8.58408773648037 -2.407198487529758 6.852730189472288 0 0 0
370 1 -6.023716094590698 -2.2588658449927266 5.640540584649157 0 0 0
371 1 -7.339998811853931 -0.413905156902894 6.631807783622081 0 0 0
381 1 -6.429726762832522 -2.846556343793587 8.02587728340765 0 0 0
379 1 -3.914589677369987 -2.5585978033475776 6.761707055758565 0 0 0
332 1 -5.103099026338596 -0.7619534222649289 7.807919655018027 0 0 0
325 1 -4.712321784310797 -0.10811514788503018 12.613124185618622 0 0 0
331 1 -2.5179990381961748 -0.4962630741304874 6.778896507358565 0 0 0
338 1 -0.3582278871276383 -0.7796837708296085 7.945694772823751 0 0 0
339 1 -1.835651385306127 -2.7805934051208165 7.8598822117872285 0 0 0
1271 1 -14.065468853797178 -7.739330283822983 10.617049956366815 1 0 0
565 1 -3.8631637861842414 -2.5608205354796443 13.908714775258721 0 0 -1
1316 1 -12.928075365624109 -13.53111813493309 8.531087567758428 1 0 0
459 1 -12.028730989091997 -12.091813770578108 10.627296591854085 0 0 0
464 1 -9.463489621481282 -11.677032499103841 9.354965829508723 0 0 0
735 1 -8.153133811968443 -13.57826643261201 8.401333648588823 0 1 0
412 1 -7.196845429197681 -12.108382540256901 10.667952101786605 0 0 0
463 1 -4.64094050113367 -11.683861211277593 9.232087659884362 0 0 0
408 1 -0.015282702707830609 -12.09106281493791 11.118223809676442 0 0 0
462 1 -2.372816065941576 -11.886795351673655 10.097230339056113 0 0 0
461 1 -0.8577336240028721 -13.611704273232036 8.647938148336992 0 0 0
11 1 -0.985244403925984 -13.465469184667434 1.5706426869563845 0 0 0
449 1 -12.915898248950157 -9.623262376226062 9.510088492450942 0 0 0
448 1 -11.590017203259682 -7.536348655839119 9.335204093651194 0 0 0
458 1 -10.66100219768975 -10.031040820127085 10.598764358083587 0 0 0
394 1 -9.295315749890438 -7.748068270510706 10.459405223619603 0 0 0
456 1 -8.092218433924748 -9.674550757931584 9.199522132667783 0 0 0
392 1 -6.710410006008563 -7.501876752142802 9.163073178757466 0 0 0
402 1 -6.06539076326051 -9.817278304470548 10.454561297475943 0 0 0
452 1 -3.306779414705696 -9.516352355767726 9.199539716862182 0 0 0
401 1 -4.620032152462379 -7.7527203907823905 10.362958007710583 0 0 0
399 1 -2.198816903698072 -7.302631476586108 9.149349326423627 0 0 0
398 1 -1.1103643361656825 -9.775153898858472 10.195482810471743 0 0 0
385 1 -11.608337245936536 -3.6000559825730694 10.39318529154925 0 0 0
386 1 -12.873315259379792 -5.695775694686988 10.372079030917336 0 0 0
384 1 -10.300564330520096 -5.417798553367026 9.350581561127415 0 0 0
343 1 -6.698547919828534 -3.5057908499265267 10.424523049204057 0 0 0
393 1 -8.250688816980453 -5.650800710588152 10.301793697878415 0 0 0
391 1 -5.524592018075017 -5.398429845920758 9.223707917592387 0 0 0
351 1 -3.3735103345894792 -5.579145895276051 10.283304003973404 0 0 0
349 1 -0.8840236874217755 -5.2858885066880035 9.060344441762096 0 0 0
350 1 -2.1190317704955532 -3.5169264626209795 10.199076837492255 0 0 0
428 1 -13.718302323725014 -3.370891761452823 9.102292955223474 0 0 0
375 1 -12.468183653807476 -1.0842341110073672 9.17636305473887 0 0 0
383 1 -9.180111972129971 -3.253424889666041 9.211705543964301 0 0 0
335 1 -10.315456273196013 -1.3885386470784677 10.315246619662664 0 0 0
333 1 -7.562714714834656 -1.1189434755792718 9.148106119445936 0 0 0
342 1 -5.506567757747849 -1.478293640506168 10.2579451350606 0 0 0
341 1 -4.3242238394937935 -3.155580025772146 9.061040122600671 0 0 0
340 1 -2.9026892082071196 -1.048116004706534 9.10511679836816 0 0 0
322 1 -0.7736813007130667 -1.3800121418512052 10.329643061529557 0 0 0
406 1 -12.277236127281073 -12.793954383227824 12.97001543362686 0 0 0
405 1 -11.131114599479803 -10.623672877291256 13.034333283760033 0 0 0
465 1 -9.800046464451995 -12.397955431944094 11.695074390324015 0 0 0
404 1 -8.538805945255103 -10.18931817711024 11.61495177984934 0 0 0
414 1 -7.5360089282489735 -12.82761444645114 13.083622071491783 0 0 0
413 1 -6.39514299342235 -10.686038591863534 12.830170804616648 0 0 0
417 1 -5.023499624129014 -12.439391315675918 11.74539845547005 0 0 0
411 1 -4.05603625303263 -11.010622984982222 13.711429035380009 0 0 0
410 1 -2.7030351770870453 -12.721086300616394 12.264432137863453 0 0 0
416 1 -0.5131660876587585 -12.891395677739876 13.243597663820816 0 0 0