LAMMPS data file via write_data, version 2 Aug 2023, timestep = 0, units = metal

1857 atoms
3 atom types

-13.694214829012683 13.694214829012683 xlo xhi
-14.091918554109164 14.091918554109164 ylo yhi
-14.101101529512244 14.101101529512244 zlo zhi

Masses

1 55.847
2 1.008
3 1.008

Atoms # atomic

1824 1 -10.660109005076666 -10.959503287518956 -12.495997687183994 0 0 0
1829 1 -10.804227139450656 -11.59307277000169 -9.887212485693368 0 0 0
1830 1 -12.383642680712413 -12.574672354296975 -11.622913323204793 0 0 0
1822 1 -9.237133445923066 -12.743182900712217 -11.631306172043354 0 0 0
1823 1 -9.266357718144608 -10.066156653024755 -10.825489258497218 0 0 0
1729 1 -12.211186708106036 -9.929145064932133 -10.836426118678105 0 0 0
1856 1 -10.7708252842714 -13.560184464649767 -13.335020974545936 0 0 0
1825 1 -8.919274233473402 -9.317512520933079 -13.592836248912603 0 0 0
1854 1 -11.953328216835343 -9.245992578970416 -13.734589106550676 0 0 0
1727 1 -10.610672518135482 -8.876373535113427 -9.125956670903477 0 0 0
1244 1 -12.389230102396418 -13.245062852448948 -8.908100011975979 0 1 0
1826 1 -13.528627065194778 -10.62735854859841 -12.68032474354021 0 0 0
1086 1 -9.495628215599783 -13.51251282474406 -8.996445509121973 0 1 0
1621 1 -13.581039759286085 -8.658830372219082 -9.218435565356412 1 0 0
1857 1 -13.651684363187686 -13.448626851671706 -13.571014535217117 0 0 0
1831 1 -13.6412328247376 -11.52791001022576 -9.883156936733323 0 0 0
1828 1 -7.835868488307889 -11.874635515378476 -9.783961321245743 0 0 0
1851 1 -7.851355127696253 -13.80865571715704 -13.249558360692905 0 0 0
1715 1 -7.85000451971886 -8.986498566576646 -8.957377345644367 0 0 0
1813 1 -7.680338736367254 -11.176318169394822 -12.484724070407681 0 0 0
1811 1 -4.803421373289394 -11.349241733372443 -12.48158355012461 0 0 0
1821 1 -6.252441852337719 -10.259490151830219 -10.732476002050047 0 0 0
1819 1 -3.4724375187218364 -13.237663515716406 -11.390070998939928 0 0 0
1797 1 -3.2562710035283917 -9.550881204760596 -13.30684472296888 0 0 0
1810 1 -3.516719917607171 -10.328061548381788 -10.669583753432178 0 0 0
1713 1 -4.952316272937081 -12.124319340995106 -9.764426655543375 0 0 0
1820 1 -6.396731537239548 -13.017138451494144 -11.546104024811196 0 0 0
1814 1 -6.16208988204339 -9.440573442589118 -13.400258267778199 0 0 0
1714 1 -5.030934088418562 -9.159649707179195 -8.969883736152076 0 0 0
1723 1 -6.6254241431238645 -13.690251469576518 -8.770199645375616 0 0 0
1220 1 -3.7141951836435325 -13.779907291793116 -8.71585496015259 0 1 0
1408 1 -5.022052967882708 -13.994065841154635 -13.228499472836067 0 1 0
1711 1 -2.1032891390697124 -12.214784428011093 -9.51508862711349 0 0 0
1847 1 -2.081690284846193 -11.509163983370144 -12.311090616622055 0 0 0
1795 1 0.7114441643366582 -11.624885293167555 -12.156853679135372 0 0 0
1808 1 -0.7806210019733655 -13.278343660928972 -11.207169235158633 0 0 0
1793 1 2.18774226219319 -13.497471077514412 -11.073310416986017 0 0 0
1844 1 -0.5837337279871999 -9.870253393833398 -13.215649312816726 0 0 0
1695 1 -0.5740753389615865 -10.41085884975173 -10.37837545580723 0 0 0
1710 1 0.786279879370662 -12.32162197669677 -9.43951151942805 0 0 0
1794 1 2.184298613591432 -10.662001001190056 -10.276335506559406 0 0 0
1777 1 2.384789680386529 -9.916978287897907 -13.043966703964925 0 0 0
1842 1 2.2940294175495133 -12.723453861014898 -13.860717514881475 0 0 0
1779 1 0.8510926736847182 -8.720583446029536 -11.569824401371188 0 0 0
1529 1 -2.071934035581199 -9.501017273152616 -8.804674000121437 0 0 0
1693 1 0.7723397515834591 -9.530601578553552 -8.66655924887967 0 0 0
1796 1 -1.8426766664438397 -8.649581356852735 -11.499350935895333 0 0 0
910 1 -0.5660288378448186 -12.576436495385668 -14.074330356833242 0 0 1
1709 1 -0.7467045305411038 -14.031253880765405 -8.522130218055409 0 0 0
1792 1 3.505370474359861 -12.505422542339524 -9.284754383239996 0 0 0
1841 1 3.6824249729283487 -11.727536081061624 -12.039943061126728 0 0 0
1840 1 5.174679963261994 -12.9477346761282 -13.651727955841505 0 0 0
1775 1 6.490939419528722 -11.823098487810405 -11.939123264031457 0 0 0
1790 1 6.449748440600999 -12.728505322845994 -9.020890992434909 0 0 0
1838 1 5.22981400783037 -9.983962998772288 -12.892650073292309 0 0 0
1836 1 7.930952800689639 -12.972826492968538 -13.556249932955213 0 0 0
1760 1 6.631022623920291 -9.07502695846513 -11.137570910060257 0 0 0
1776 1 5.156714595677133 -10.886214099580183 -10.186451227480443 0 0 0
1774 1 7.900079991609466 -10.936933655268277 -10.137919687868857 0 0 0
1791 1 4.947122806886075 -13.467920494298982 -10.890155786676779 0 0 0
1837 1 8.023608623812756 -10.258237613273163 -12.718709581309518 0 0 0
1773 1 7.800901276915358 -13.658737693662502 -10.920117162535014 0 0 0
1778 1 3.6469131862304742 -8.985637636321275 -11.179142226253209 0 0 0
1673 1 3.645446695051284 -9.704073194541433 -8.45594049511224 0 0 0
1756 1 12.299146652483845 -12.25101055592686 -11.712325290638246 0 0 0
1758 1 9.402543646705723 -9.416858661097349 -11.04176579660734 0 0 0
1772 1 10.70196278736141 -11.115807405456636 -10.021561960153619 0 0 0
1832 1 11.011255277203954 -10.467648361327818 -12.69558779645204 0 0 0
1835 1 9.486159680286526 -12.157667970902287 -11.886550908518956 0 0 0
1757 1 12.455617391350614 -9.649053204221355 -10.974139609032841 0 0 0
1789 1 9.215533721330093 -12.80966031513446 -9.07878854409552 0 0 0
1770 1 11.975756557463143 -13.083985765969853 -8.97030336294106 0 0 0
1834 1 10.955291685460757 -13.340893840946398 -13.532024872670368 0 0 0
1855 1 12.569774515105859 -8.68770277329508 -13.761414407109681 -1 0 0
1833 1 9.699549786541645 -8.579784637637736 -13.8175875728231 0 0 0
1771 1 10.67718675949445 -14.071905794927186 -10.713854470297935 0 0 0
1719 1 -10.502525168272546 -8.322705928678525 -11.920924087633635 0 0 0
1703 1 -10.346348865663156 -5.404154215222661 -11.270942240452918 0 0 0
1827 1 -11.897209782063797 -6.3677962922978395 -12.962106817053765 0 0 0
1720 1 -11.882361989133644 -4.224477657227752 -9.496997428446853 0 0 0
1730 1 -12.029080367289778 -7.011938743227333 -10.254331460923597 0 0 0
1728 1 -9.188790154186481 -7.248052017595304 -10.196747616921657 0 0 0
1802 1 -8.93050388279729 -3.786288402978643 -12.069070782573785 0 0 0
1702 1 -8.990833565220836 -4.425629034139179 -9.363926674342924 0 0 0
1816 1 -8.969072869076207 -6.572518234653422 -12.893327288675778 0 0 0
1685 1 -11.718359856064085 -3.589801489595107 -12.295001041293293 0 0 0
1818 1 -13.310910060449839 -5.133470747627548 -11.296460962644243 0 0 0
1803 1 -10.339221717328348 -4.674326600548213 -13.830444791194811 0 0 0
1745 1 -13.42612577578055 -7.97708937162557 -12.068770037186944 1 0 0
1812 1 -4.850039815562106 -8.301509116008255 -11.69381635214878 0 0 0
1717 1 -7.653476795214109 -8.389164007108512 -11.658564952734894 0 0 0
1718 1 -7.592007000370307 -5.5587246491748665 -11.073598767587237 0 0 0
1697 1 -3.375842870668494 -7.632595857651958 -9.822941121418488 0 0 0
1701 1 -6.085548164294993 -6.598466679240629 -12.868296396070559 0 0 0
1699 1 -6.212244598375407 -7.410121992514809 -9.985960445925333 0 0 0
1798 1 -3.238268333352176 -6.890830048082345 -12.621373347941216 0 0 0
1681 1 -6.067218309197005 -3.7858959295603007 -12.007757044454996 0 0 0
1700 1 -6.124173257988463 -4.676300393411031 -9.319972471040664 0 0 0
1698 1 -4.672105753992293 -5.664776654157876 -11.001033308883803 0 0 0
1679 1 -3.117135109779019 -4.0700163435753876 -11.965191782581496 0 0 0
1800 1 -4.451148540283791 -5.00182174511149 -13.807445912154153 0 0 0
1512 1 -3.240663703632732 -4.940689038440011 -9.153453204085942 0 0 0
1785 1 -7.481413510561294 -4.780751704747663 -13.662805785082163 0 0 0
1680 1 -4.558609895134314 -2.970693805659778 -10.184956105933146 0 0 0
1677 1 -1.811407261503657 -5.8628999367343635 -10.863983653636243 0 0 0
1782 1 -1.7500312204541633 -5.114755915585182 -13.758695667817673 0 0 0
1780 1 -0.448181822709655 -6.948612669591954 -12.597312734202902 0 0 0
1652 1 0.9915653084063756 -6.024304200220042 -10.805449595309033 0 0 0
1764 1 2.498663417735969 -7.194133911641236 -12.422164468088653 0 0 0
1654 1 -0.2495977575793198 -4.227443457627949 -11.901789485979045 0 0 0
1766 1 1.235570254639505 -5.279787306964563 -13.60176553568102 0 0 0
1629 1 2.604796362331566 -4.4152593963986835 -11.703522679845623 0 0 0
1696 1 -0.5301352002584316 -7.734010264898248 -9.65972754674101 0 0 0
1675 1 2.381694539068693 -7.779547488750264 -9.63501189888541 0 0 0
1676 1 -0.4238939138506925 -4.956310878722553 -9.09067654135214 0 0 0
1484 1 2.3677122238873736 -5.153389196451013 -9.029170237473727 0 0 0
1653 1 1.23362197108837 -3.3807240850747284 -10.126184579687585 0 0 0
1678 1 -1.8293671176311257 -3.1144609908283662 -10.232262949204792 0 0 0
826 1 6.794868496354528 -8.264492876594893 -14.0028899008431 0 0 1
1648 1 8.035705099880236 -8.213706351099276 -9.342594788519827 0 0 0
1763 1 3.8668227942652145 -6.229635443247741 -10.626693504036437 0 0 0
1650 1 5.186075594986917 -7.9760123960962535 -9.482482627098019 0 0 0
1753 1 4.125409992977399 -5.407236440930626 -13.396686168995931 0 0 0
1627 1 5.418776036711208 -4.600313444710746 -11.666548887001733 0 0 0
1751 1 6.898542565012967 -5.826953669735399 -13.115225864266066 0 0 0
1761 1 6.7664317621968095 -6.317399209050511 -10.464694797506507 0 0 0
1762 1 5.269023178996068 -7.332733288613918 -12.25459080556093 0 0 0
1649 1 6.988527373506862 -3.612795413940489 -9.77442119755604 0 0 0
1651 1 4.044951468558743 -3.4506966540639237 -9.975508444431938 0 0 0
1749 1 8.200540946705335 -7.571821628008438 -12.120774321556057 0 0 0
1750 1 8.399539997369676 -4.827870030221282 -11.332894511191343 0 0 0
1482 1 5.288432355978394 -5.244685973029696 -8.848868353943544 0 0 0
1480 1 8.156854398547033 -5.504127618952483 -8.707990492747278 0 0 0
1607 1 7.1163898244596595 -2.8899826254848886 -12.452098732672455 0 0 0
1623 1 10.755289408156496 -8.446883622635582 -9.236911986260537 0 0 0
1625 1 9.721197022468655 -3.8832799457279776 -9.602007612862671 0 0 0
1747 1 11.067641552842986 -7.833243307176466 -12.038170504584397 0 0 0
1759 1 9.686541445116386 -6.612964622330223 -10.355097937462935 0 0 0
1603 1 12.521908538718854 -4.0675838974321845 -9.629903660224542 0 0 0
1739 1 12.69070031875762 -6.1305852106488 -13.062017711399745 0 0 0
1741 1 9.700243490303741 -5.914278330886923 -13.120042225317642 0 0 0
1748 1 11.239833174805426 -4.922003453940388 -11.423055845309563 0 0 0
1746 1 12.52460996774277 -6.76422101644381 -10.39691068543947 0 0 0
1740 1 12.81767475654593 -3.289773228623206 -12.261619002756255 0 0 0
1742 1 9.86722933102201 -3.1547942866693504 -12.37849749603005 0 0 0
1624 1 11.053955241337857 -5.741301438341553 -8.631308763954168 0 0 0
823 1 11.37866737530085 -4.279969857099532 14.088308967128055 0 0 0
1704 1 -10.23630891799321 -2.5819071097822146 -10.581731488966986 0 0 0
1705 1 -13.181522168044744 -2.391619314518806 -10.56229934030463 0 0 0
1687 1 -12.929700879848955 1.1294344005364376 -12.609749905742849 0 0 0
1706 1 -11.663884977996162 -0.7315180155516465 -11.43277705650276 0 0 0
1683 1 -10.247613871692389 -1.9166533229565719 -13.233102473716832 0 0 0
1520 1 -11.494419391469819 2.007328033746983 -10.74622138977789 0 0 0
1686 1 -9.994448977606258 0.804837206088191 -12.579438889781594 0 0 0
1518 1 -10.225944840929992 0.11599600739836369 -9.705353262033803 0 0 0
1737 1 -13.090094512682446 -1.7533829817324929 -13.29684766211176 1 0 0
1590 1 -13.010764392113023 0.3411039035254859 -9.813077666532823 1 0 0
1684 1 -8.8073938475201 -0.8831082084916062 -11.518989144261706 0 0 0
1494 1 -8.680652998257965 1.7387127227890726 -10.748157845857284 0 0 0
1662 1 -8.5446355708022 2.546169920156853 -13.461780337303297 0 0 0
1539 1 -11.77910723380692 -1.6266221367617693 -8.810048142928622 0 0 0
1516 1 -8.959134630538495 -1.7319603318223464 -8.601136630137372 0 0 0
1682 1 -7.460055385994192 -2.841077802069627 -10.328745659623124 0 0 0
1656 1 -4.464267506060082 -2.1381060517650834 -12.956958905447873 0 0 0
1658 1 -5.9756526474007154 -1.163108181641272 -11.31616472877713 0 0 0
1786 1 -7.360471554879113 -2.0698819064971534 -13.12987418134619 0 0 0
1492 1 -7.510382082342197 -0.08617108062544254 -9.587182671646477 0 0 0
1660 1 -7.177023593964017 0.6761221379148594 -12.331155758184078 0 0 0
1635 1 -4.38631060890364 0.536979929682472 -12.240963301575093 0 0 0
1657 1 -3.0070122897785225 -1.1944080779902553 -11.177902604204132 0 0 0
1659 1 -5.819147290720695 1.6344882690061961 -10.5452914503474 0 0 0
1490 1 -4.5340422635357776 -0.20099646579341268 -9.570171949204479 0 0 0
1637 1 -5.571013502564943 2.3506476118678385 -13.460066365054198 0 0 0
1633 1 -2.882024783449584 1.3710612128320054 -10.454875461486065 0 0 0
860 1 -2.6491843450230075 2.060756605887768 -13.282376787768209 0 0 1
1768 1 -2.7870798966033963 -0.4688591667958111 -14.042745445214935 0 0 0
1493 1 -7.105628879642062 2.583935677726476 -8.82515862966771 0 0 0
1466 1 -4.292702047616443 2.520836729319729 -8.838765125860224 0 0 0
1514 1 -5.973541588695139 -1.8793245618911811 -8.5907543491766 0 0 0
842 1 1.364782559425569 -2.516222256405067 -12.7582852944927 0 0 1
1767 1 -1.5452187774963395 -2.425646343578471 -12.906748365877592 0 0 0
1755 1 -1.3692752106220674 0.2978075499863735 -12.195254349145394 0 0 0
1765 1 -0.17374548543787505 -1.6034209019798666 -11.134391690769483 0 0 0
1631 1 0.016416758727398673 1.2517395367230666 -10.450904051475813 0 0 0
1754 1 1.445208147250229 0.27642778455051165 -12.076255655245745 0 0 0
1630 1 1.3130045895348648 -0.6221246471737558 -9.329455600841026 0 0 0
1655 1 -1.5692563697111996 -0.3803267022679595 -9.369116419405396 0 0 0
1632 1 -1.47535564249055 2.377099136360467 -8.669249752864612 0 0 0
850 1 0.15645005729058248 2.0619207644842525 -13.044501789676866 0 0 1
1752 1 2.748372517996838 -1.5695310781799137 -11.067638429759661 0 0 0
1438 1 2.7540312501245303 1.066701627009131 -10.27271903286113 0 0 0
841 1 2.979940638537631 -0.8567229398441452 -13.762185473890074 0 0 1
851 1 0.10736767620777599 -0.7358239092115593 -13.877660132128913 0 0 1
1463 1 1.4310505556460704 2.1995455916307414 -8.542582900154372 0 0 0
840 1 3.145407223558781 1.8715126389775136 -12.930122307120413 0 0 1
832 1 4.223073211528469 -2.6316047310497037 -12.704030113915957 0 0 1
1628 1 5.554936039281181 -1.8616409661801967 -10.758668172221194 0 0 0
1609 1 4.4590306894862515 0.07921307512695108 -11.78045238746294 0 0 0
1608 1 7.354046199058864 -0.15849887236684523 -11.844526960226833 0 0 0
1595 1 5.961769648510419 1.690246620542169 -12.913946495721763 0 0 0
1436 1 5.814303072741627 0.9670702080608624 -10.034725993087388 0 0 0
1460 1 4.144177170679615 -0.5831686143347383 -9.18740780240989 0 0 0
1458 1 7.087386023020926 -0.7916981741945488 -8.982323800693731 0 0 0
1744 1 5.896330169782399 -1.2035949153188508 -13.606833811308798 0 0 0
1626 1 8.522058920822623 -1.987413628888195 -10.644227348291198 0 0 0
1594 1 7.3603779154392655 2.5081930814902016 -11.187091894472166 0 0 0
1434 1 8.720085679880796 0.8808489989723682 -9.981394014821884 0 0 0
1743 1 8.563723517548862 -1.3072736701365884 -13.533486233485839 0 0 0
1593 1 8.900183935842144 1.4970631723688257 -12.64239155659981 0 0 0
1604 1 12.83963583469082 -0.509598181572283 -11.532479791306567 0 0 0
1605 1 11.195893041895314 -2.107498441760592 -10.586522895198916 0 0 0
1591 1 11.389352113590988 -1.6666509589588614 -13.353088081930094 0 0 0
1606 1 9.936146388487856 -0.36756848312402823 -11.716994080519882 0 0 0
1592 1 11.614628309871506 1.3993666252028376 -12.576288948016552 0 0 0
1411 1 11.312975117978468 0.5856246918069488 -10.0298066938835 0 0 0
1432 1 9.851820022000112 -1.0241324306726654 -8.835305723989702 0 0 0
1394 1 13.032447177777517 2.2782714168047953 -10.877301105518008 0 0 0
1396 1 10.187045643403899 2.59291719303501 -10.99996840886487 0 0 0
1430 1 12.781107143197932 -1.2999317628701164 -8.805000582658586 0 0 0
1664 1 -11.3190099767456 2.6878767425307224 -13.620161542172152 0 0 0
1519 1 -9.876067926282092 2.7648179295780366 -8.96336727525366 0 0 0
1581 1 -12.716267791332825 3.898929017267953 -11.978636443461545 1 0 0
1472 1 -9.762062282569909 6.299927975282824 -11.163933510618818 0 0 0
1496 1 -9.88414666703773 3.573308179259847 -11.748706167923872 0 0 0
1665 1 -11.15948089244023 5.518441219286576 -12.959425323267645 0 0 0
1582 1 -12.749345470987803 6.620244959959148 -11.118395285848804 1 0 0
1313 1 -11.28063253872492 4.67466451536955 -10.210491648993937 0 0 0
1265 1 -11.169371538056568 7.5254589365501126 -9.412368178380657 0 0 0
1410 1 -12.829068894569794 3.118371990356149 -9.062694621789325 1 0 0
1495 1 -8.47950478582685 4.5243222506003455 -10.01080540307704 0 0 0
1663 1 -8.201267592465982 5.227879812127647 -12.755524531391625 0 0 0
1642 1 -9.598301705445156 7.135933336287767 -13.942835342913408 0 0 0
1474 1 -12.607574003276461 7.253131771299316 -13.908674934747655 0 0 0
1470 1 -8.371187280304408 7.203030084635223 -9.294289254120045 0 0 0
1448 1 -8.227240165784053 8.15777745055373 -12.051572023466615 0 0 0
1497 1 -11.155275021561023 8.208458634112272 -12.22587872012312 0 0 0
1395 1 -12.740159359410104 5.905629428094819 -8.494915287960303 1 0 0
1617 1 -4.15162385425397 3.137749074300089 -11.521068995751417 0 0 0
1661 1 -6.867880354683015 6.159367204668207 -10.945001848938013 0 0 0
1444 1 -5.4841442554144315 7.114753778960829 -9.199167112426741 0 0 0
1468 1 -6.992217902540599 3.481458028741301 -11.673701096629973 0 0 0
1636 1 -5.698903220497974 4.306177050440709 -9.806808548780651 0 0 0
1616 1 -4.033700231428437 6.043813492903702 -10.807247587952421 0 0 0
1640 1 -6.607343672362414 6.971049133798115 -13.682800701327734 0 0 0
1618 1 -5.401609676695005 7.98427075053759 -11.87053864198952 0 0 0
1638 1 -5.456849477457064 5.068947186333009 -12.594539923451004 0 0 0
726 1 -3.9012268076142487 6.878657088889938 -13.588037604235247 0 0 1
1634 1 -2.760446791249443 4.266860585616726 -9.740878021522912 0 0 0
1615 1 -2.6302941814314877 4.860422964384139 -12.430329965813897 0 0 0
1442 1 -2.5829715838440706 6.970089458711932 -9.140051532802655 0 0 0
1601 1 -2.533993037344553 7.7309650222726525 -11.843628829965784 0 0 0
1611 1 1.6078715553870886 2.9627324830183817 -11.361866552688534 0 0 0
1613 1 -1.3456507993700964 3.0720250927769044 -11.272069464577148 0 0 0
1614 1 -1.1224412306406002 5.881897577066372 -10.771335143217174 0 0 0
1421 1 0.4163791918949382 7.563760865434929 -11.558245790143669 0 0 0
1600 1 1.7929421595804271 6.34266260835226 -13.394654340934112 0 0 0
1419 1 1.7130320347813743 5.588941896522069 -10.594091117056909 0 0 0
1612 1 0.16414369734980028 4.1793811381652155 -9.560648018895595 0 0 0
1599 1 0.230366518301647 4.780830445030148 -12.258168205154755 0 0 0
1441 1 0.1077918200630048 6.909460427919811 -8.959549875094627 0 0 0
707 1 -0.9815380678154213 6.650731386394213 -13.395425433603641 0 0 1
1439 1 2.9543183065915137 3.8081578564983793 -9.53791067402151 0 0 0
1418 1 3.060233911881575 6.599993773808809 -8.750966475005308 0 0 0
1598 1 3.101460087690807 4.531726974257367 -12.358961141842135 0 0 0
1610 1 4.440063703050917 2.8187591945225208 -11.081587387222529 0 0 0
1402 1 3.151239273229397 7.196357147659516 -11.551398348529702 0 0 0
1415 1 5.926240390709413 3.7383559469639067 -9.46683386791926 0 0 0
1400 1 6.051172973115893 7.188999741508752 -11.47456293232306 0 0 0
1417 1 4.508660934452692 5.442956117868544 -10.536119792196391 0 0 0
1596 1 6.070270755096804 4.38443893082535 -12.155820735094546 0 0 0
1586 1 7.515234715464615 6.103546128182799 -13.169597211915237 0 0 0
1588 1 4.6183886993318275 6.207156450708432 -13.345902945649193 0 0 0
1398 1 7.431392778493208 5.4534808557290155 -10.36996689055069 0 0 0
1585 1 7.4852947367840414 3.4211349964129774 -13.930454584042918 0 0 0
1399 1 7.603434847071561 8.143892514481767 -9.685119015138536 0 0 0
1416 1 5.942411161540878 6.547162525037788 -8.637183004949167 0 0 0
1597 1 4.7320940741518065 3.548433524568434 -14.025761588837366 0 0 0
1414 1 8.714397407236635 3.46104057399873 -9.31140264965311 0 0 0
1196 1 4.671934920264498 8.169699904722318 -9.915383153286202 0 0 0
1584 1 8.825985122439427 4.241905240886638 -12.084996060272765 0 0 0
1194 1 8.822823497468217 6.275664482800469 -8.624141095502939 0 0 0
1386 1 8.890817772901283 7.007608274699592 -11.419311970284792 0 0 0
1577 1 13.265964687750706 5.707725463843257 -12.925826262580735 0 0 0
1738 1 13.213620417521799 2.8992985950029606 -13.577117359341058 0 0 0
1384 1 13.154767018240985 4.941678451484414 -10.129954345944595 0 0 0
1397 1 10.110056917762346 5.2576671556702586 -10.411642605577066 0 0 0
1583 1 11.71835143950084 4.127416977465167 -11.887788103370651 0 0 0
1578 1 11.898724067817955 6.7839178301586855 -11.138490170665287 0 0 0
649 1 10.43877712119074 5.897978616207901 -13.083625938626259 0 0 1
1412 1 11.553318648387329 3.4067845590763035 -9.163131750083743 0 0 0
1377 1 13.206587459321202 7.796423789635362 -9.37654095780012 0 0 0
819 1 10.43158009849478 3.2295609194573487 -13.79300177408006 0 0 1
1183 1 10.38018992437166 7.94783431426076 -9.591620327342454 0 0 0
631 1 11.950260691326992 7.642213347939155 -14.025363489964002 0 0 1
1181 1 11.683128261198881 5.997846944696825 -8.527242293575021 0 0 0
1243 1 -10.88292430255791 10.941900005262841 -11.414927099955447 0 0 0
1450 1 -9.565485012009857 9.870904352238373 -13.176970221464154 0 0 0
1451 1 -12.36919992048998 12.896236125708779 -12.635244987773932 0 0 0
1473 1 -9.590845783125326 9.123486459175215 -10.340637272117553 0 0 0
1475 1 -12.466669823208772 10.006177058810035 -13.165015367447802 0 0 0
1267 1 -12.506609335124729 9.328086934506054 -10.492661941176227 0 0 0
1268 1 -12.666978406304594 12.251984232229997 -9.842449807311908 0 0 0
1428 1 -9.535770425204984 12.72304568345709 -12.508564559345706 0 0 0
1449 1 -9.622862076730106 11.881363161692505 -9.705763260248581 0 0 0
1109 1 -11.035406365729978 10.236143661636333 -8.628669657852152 0 0 0
1241 1 -8.29051899572187 10.012464711632727 -8.565625791296931 0 0 0
1222 1 -10.918800578325223 13.836320276801036 -10.654999784922271 0 0 0
1429 1 -10.896862560574542 11.67441293895223 13.975024582362876 0 0 -1
1242 1 -7.980025408113469 13.635002225598836 -10.634219421860557 0 0 0
1619 1 -8.116422654089819 10.837881487826127 -11.28797529397982 0 0 0
1423 1 -3.951155825608872 8.89477506053423 -10.135477975496077 0 0 0
1446 1 -6.7600288834707944 8.985628034192128 -10.198297635352999 0 0 0
1427 1 -6.6219323936220835 12.43766142365574 -12.296309483301746 0 0 0
1203 1 -3.981949375915452 11.629722298650858 -9.538788843263752 0 0 0
1425 1 -5.15314849926026 10.626688562842311 -11.284260880560263 0 0 0
1426 1 -3.696304818360746 12.344217260594746 -12.404079349301913 0 0 0
1447 1 -6.639028973789269 11.660333293215931 -9.510942586557558 0 0 0
1445 1 -5.328714938261841 9.82182019420905 -8.525354541067038 0 0 0
1221 1 -5.175621769295375 13.371278557986368 -10.531662916269527 0 0 0
724 1 -3.7186322774643426 9.557352654174153 -12.954574575264603 0 0 1
743 1 -6.692366967720598 9.796580823247037 -12.937887123327217 0 0 1
1409 1 -5.126896330857825 11.291429353685182 -14.023122396881087 0 0 0
1424 1 -2.398134841672503 10.527637555333943 -11.161641996376021 0 0 0
1809 1 -2.24352924995196 13.142659235260112 -10.34052697849502 0 -1 0
1602 1 -2.2651691618530094 11.113625064812538 -13.866813242566622 0 0 0
1420 1 1.9101490861155543 8.462002296490333 -9.95137155383409 0 0 0
1422 1 -1.1109737579745342 8.69008095552513 -10.071819284027523 0 0 0
1202 1 -0.9156267673141372 11.322726759005242 -9.416672976250771 0 0 0
1406 1 -0.8944182016194642 9.38027086981128 -12.756891871549731 0 0 0
1407 1 -0.7767175779700821 12.1353209980998 -12.058162339264856 0 0 0
1404 1 2.0103236273456773 9.107196706007315 -12.718974260316877 0 0 0
1405 1 0.5443721744823229 10.21091981101922 -11.046685064445537 0 0 0
684 1 2.1794491832478347 11.853050267737572 -11.878067225522546 0 0 1
1845 1 0.6562264713126691 13.023839205849107 -10.332437860338302 0 -1 0
1403 1 1.8559157674173647 11.192296621910899 -9.11214250735379 0 0 0
1393 1 0.663131392491918 10.988347205293046 -13.664111937461895 0 0 0
1846 1 0.8246037083653164 13.853710139657274 -12.933095193452138 0 -1 0
1401 1 3.406708515137222 10.02910870814755 -10.913104675325934 0 0 0
1189 1 3.329687708211683 12.86180923459725 -10.003098697772376 0 0 0
1589 1 3.456773348274055 10.834737847179287 -13.718785533491719 0 0 0
1390 1 4.7217498444973565 9.001684922334793 -12.613603876691053 0 0 0
1388 1 7.512491815370765 8.749625927576194 -12.445946325967817 0 0 0
1389 1 6.195329365971531 9.900053274072292 -10.870681635658018 0 0 0
1580 1 6.307687957564589 10.646424242284919 -13.61326332881522 0 0 0
1180 1 6.374456765291178 12.753065561414576 -9.966511233497112 0 0 0
1391 1 4.873202162946594 11.898423873583518 -11.714091831887504 0 0 0
1382 1 7.731438212261647 11.66372974471626 -11.712562904159949 0 0 0
1185 1 7.6860304307732115 10.983295790388201 -9.001605074669495 0 0 0
1383 1 6.3958309006080505 13.36791880400515 -12.664535016435984 0 0 0
1187 1 4.9178283432285355 10.9026434632951 -9.125775667592755 0 0 0
1392 1 3.684676485713272 13.679206843786144 -12.648107439214586 0 0 0
1387 1 9.02226944027306 9.825147799607553 -10.628435981312181 0 0 0
1378 1 13.410922325519397 11.16305099608574 -11.507531819519238 0 0 0
1576 1 13.339328943502078 8.480614595974625 -12.184521865553798 0 0 0
1381 1 9.056781445858935 10.497643568493373 -13.38600509347755 0 0 0
1179 1 9.205977269545144 12.527367799485333 -9.892973434528713 0 0 0
1385 1 11.883839854409896 9.601123204967514 -10.506113483195918 0 0 0
1375 1 12.25871681717802 13.114934997127413 -12.625883762744147 0 0 0
1379 1 10.466537976968741 8.69334448965219 -12.312728943074328 0 0 0
1380 1 10.586985425165718 11.41895590349468 -11.638902363392003 0 0 0
1177 1 12.01859742560164 12.380283330264493 -9.810251119209028 0 0 0
630 1 12.0260826096265 10.358213556165499 -13.284403402116506 0 0 1
1376 1 9.221411700740259 13.275343513530622 -12.639250956344194 0 0 0
1184 1 10.44691560439901 10.696971417829086 -8.746564224358643 0 0 0
1175 1 13.291758672472628 10.36151006611561 -8.798331988630828 0 0 0
1850 1 -2.025812334442689 13.932327894101618 -13.257063769291653 0 -1 0
1174 1 13.521894179804665 14.013574860769683 -10.705066510442201 0 0 0
1734 1 -12.203297582267503 -10.467913959689165 -8.098318761276518 0 0 0
1725 1 -9.413995987076571 -10.753199871946576 -8.107437320044077 0 0 0
1732 1 -10.866882902444654 -12.349866453967074 -7.163961904571018 0 0 0
1736 1 -12.358016083218224 -11.17399968929726 -5.562564045431619 0 0 0
1562 1 -9.467145090835444 -11.27434827196825 -5.421513654415943 0 0 0
1564 1 -11.01614078763874 -10.264071420102619 -3.6423890784303214 0 0 0
1726 1 -10.840220556750031 -9.520600144856116 -6.31937223178578 0 0 0
1570 1 -12.253748333238734 -12.16096848116014 -3.0281934944462012 0 0 0
1366 1 -8.199032465493161 -13.301807247086963 -4.538950201093154 0 0 0
1374 1 -13.537727717232611 -13.144960270614654 -4.817664485857168 0 0 0
1367 1 -8.187961656924472 -10.453775773587136 -3.603155185132051 0 0 0
1085 1 -10.818604008369174 -13.238400765692042 -4.501441034912478 0 1 0
1563 1 -9.501348973904072 -8.71211071960329 -4.6084868667865635 0 0 0
1735 1 -13.670814146599492 -9.335130049234298 -6.452511299389051 0 0 0
1733 1 -12.41040178937994 -8.448143197002253 -4.5631087713258225 0 0 0
1731 1 -8.025281204783099 -12.4667180972013 -7.19204959081287 0 0 0
1561 1 -7.8939269219845185 -9.731579011828687 -6.483143144462488 0 0 0
1724 1 -6.489467041861776 -10.888866988825388 -8.180887884758627 0 0 0
1548 1 -5.120321322303354 -9.933566894461428 -6.22726358352059 0 0 0
1560 1 -6.563781271498413 -11.554067399215082 -5.3814642390199126 0 0 0
1559 1 -3.7796598364989897 -11.725498435711849 -5.116421758006037 0 0 0
1722 1 -5.123794373756951 -12.729022457254912 -7.068150302783041 0 0 0
1568 1 -5.316360617282928 -13.463229529903971 -4.244246648195686 0 0 0
1712 1 -3.655996179635796 -10.99577934714397 -7.95833305700733 0 0 0
1356 1 -5.211590821034756 -10.74248566384895 -3.410395034707088 0 0 0
1343 1 -3.651631441084673 -8.946658852554117 -4.334756512800565 0 0 0
1345 1 -6.650108208432518 -8.904916462929624 -4.452482742541067 0 0 0
1352 1 -2.520472643861156 -13.694432031176179 -4.089589328720136 0 0 0
1341 1 -2.485704023108589 -10.886985364659758 -3.236949122610552 0 0 0
1721 1 -2.355559805478208 -12.839211232060537 -6.849731861072218 0 0 0
1547 1 -2.3253532838452546 -10.197326908811656 -5.991745351964234 0 0 0
1546 1 -0.8070716217324811 -11.260977386139627 -7.722619398599014 0 0 0
1544 1 0.46328776723604115 -13.190315029985122 -6.573567480452339 0 0 0
1545 1 -1.0277798210193172 -11.943750894353943 -5.057117496813854 0 0 0
1527 1 0.5512936032705138 -10.30969477990751 -5.822077108586763 0 0 0
1708 1 2.0423257865605375 -11.468781236469653 -7.604198910506248 0 0 0
1543 1 2.0065840058743056 -12.127860108880673 -4.829971638757767 0 0 0
1323 1 -0.8267509311973971 -9.22013075634954 -4.082035886548711 0 0 0
1528 1 1.897214420434148 -9.346919419416567 -4.007316728089794 0 0 0
1556 1 0.3914964588168317 -13.8060932663493 -3.944668201331199 0 0 0
1321 1 0.3577509415302291 -11.060586592195289 -3.2625784813447822 0 0 0
1694 1 2.157516684201669 -8.699972637528363 -6.752136326128721 0 0 0
1807 1 1.9281421001762205 13.941847308951207 -8.365301069769437 0 -1 0
1542 1 3.2582714144085863 -13.955742816777448 -3.771312358571903 0 0 0
1319 1 3.173877432069677 -11.15405328851003 -3.0238319923802397 0 0 0
1671 1 6.431162304174173 -9.862068270223608 -8.429698259263253 0 0 0
1035 1 3.4454420628894553 -13.288191285629253 -6.525023730216127 0 1 0
1526 1 3.5567134142520587 -10.384093138114745 -5.878590205739977 0 0 0
1691 1 4.964032359576457 -11.547929523347463 -7.465688411707017 0 0 0
1504 1 6.2078230470325515 -10.605894542889946 -5.679577666623318 0 0 0
1523 1 7.465790383146121 -12.311546730139058 -4.6064915274880995 0 0 0
1525 1 4.710972038953919 -12.250334044137688 -4.702493028706554 0 0 0
1690 1 6.240975740459586 -13.40518338841872 -6.4290365431839795 0 0 0
1669 1 7.770629513123662 -11.728559253252037 -7.296084972532428 0 0 0
1297 1 4.755468388052396 -9.448861842410981 -3.973207448327706 0 0 0