LAMMPS data file via write_data, version 23 Jun 2022, timestep = 0

1869 atoms
3 atom types

-13.75375402612161 13.75375402612161 xlo xhi
-13.656936953883129 13.656936953883129 ylo yhi
-14.671607558296875 14.671607558296875 zlo zhi

Masses

1 55.847
2 1.008
3 1.008

Atoms # atomic

87 1 -10.914829549423791 -11.335623480176135 -13.046938291644024 0 0 0
1022 1 -13.526189173916116 -12.526140205276878 -12.662492498995794 1 0 0
20 1 -6.425703492834714 -0.8758990676875591 -1.0674347040859882 0 0 0
94 1 -8.542584804945065 -12.127785159020434 -13.016225490822247 0 0 0
92 1 -6.170558756955105 -10.911238403743136 -13.316718057463685 0 0 0
482 1 -3.7198085259960934 -11.738671396477493 -13.269610075298194 0 1 0
96 1 -6.164958224989108 -13.28028256010778 -12.886734473275336 0 0 0
483 1 -1.4882820196068938 -13.013681226422733 -13.222051091704007 0 1 0
91 1 -1.3220939642749663 -10.689032384106433 -13.834130214039591 0 0 0
124 1 -11.148788105817713 -8.95074200930885 -13.529028328195338 0 0 0
119 1 -13.568682151605005 -7.72297442498639 -13.514253603124619 0 0 0
148 1 -4.037798016623148 -1.8403911669836166 -1.077829842503352 0 0 0
123 1 -8.818725292998522 -9.684020432849183 -13.390447300831008 0 0 0
115 1 -8.716973730541381 -7.405065956134396 -13.87190111242551 0 0 0
116 1 -9.763611134142211 -7.756643598129464 -11.786148966021207 0 0 0
84 1 -7.250874056033921 -8.612643276116165 -11.730383324972408 0 0 0
83 1 -6.291477780508831 -8.535215101070158 -13.79951951879499 0 0 0
82 1 -4.856631070247211 -7.326490115926793 -12.166956565121335 0 0 0
81 1 -3.9963790139554227 -9.422740564359483 -13.841308404070277 0 0 0
121 1 -4.05110105684019 -6.789426043310547 -14.475924931403023 0 0 0
89 1 -2.518487387576519 -8.106017975580304 -11.991841677837307 0 0 0
79 1 -1.7270400944321675 -8.365750438226438 -14.26949602360992 0 0 0
1107 1 -0.14256218284042 -9.297102108358388 -12.130121572647344 0 0 0
1102 1 -0.09288542682321932 -6.889838703642705 -12.616038880703016 0 0 0
117 1 -10.917514739623549 -6.629609723859566 -14.054642891717828 0 0 0
136 1 -12.013343595405543 -4.151851983319002 -12.320791015462344 0 0 0
141 1 -13.215457662408133 -5.25573279946353 -14.010053994462266 0 0 0
149 1 -5.40495188395764 -3.111637918099275 -2.825703386918976 0 0 0
108 1 -12.193053097559995 -6.641809710317704 -11.821601091335108 0 0 0
106 1 -9.70760792169328 -5.250583452386504 -12.176351524961612 0 0 0
73 1 -7.321031842523452 -6.1526015658512 -12.216069858467769 0 0 0
114 1 -7.184112163740023 -3.7200881860416732 -12.910868049928494 0 0 0
71 1 -4.7812254326374575 -4.808341527397895 -12.786182384577565 0 0 0
122 1 -6.411325848388712 -6.237028395717108 -14.323678099209697 0 0 0
80 1 -2.503833777332545 -5.813832594972503 -12.696263732131309 0 0 0
544 1 -2.2274221338365816 -13.547052768342406 -2.5711253359414616 0 1 0
403 1 -8.768157048977027 -2.3234008111608393 -0.6182401822643762 0 0 0
137 1 -11.7111927030464 -1.694015498328028 -13.203627081123624 0 0 0
581 1 -9.488654750401194 -0.4475292982392016 -13.34829530354975 0 0 0
133 1 -9.570326318347895 -2.8685340929001235 -12.677204316617049 0 0 0
104 1 -7.223530578401937 -1.1135151204042177 -13.296449493852197 0 0 0
112 1 -4.948968393481691 -2.517899206440381 -13.357488512830521 0 0 0
102 1 -4.815784208865438 -0.11411926854795951 -13.68317507673943 0 0 0
111 1 -2.2588255453765065 -3.4038574033954916 -13.202807975860988 0 0 0
110 1 -2.4608216112509425 -0.8683518888212642 -13.777712767717626 0 0 0
13 1 -7.850379636396433 -2.0795083648214003 -2.8035913926896683 0 0 0
77 1 -12.278412133077623 -11.461794399972398 -10.897782218108166 0 0 0
76 1 -10.9207247728352 -10.222532360336706 -9.078576501520178 0 0 0
86 1 -9.981077869839641 -12.511750592223832 -10.67319073049434 0 0 0
154 1 -7.29380693263673 -11.079811710339435 -11.252511080188253 0 0 0
170 1 -8.42472014622209 -11.313940573637455 -8.95296379411138 0 0 0
152 1 -7.337183567664743 -13.51399157277386 -10.83702280065599 0 0 0
145 1 -4.82937715695749 -12.077685278533854 -11.141614534600311 0 0 0
146 1 -3.7319917805283254 -10.827633477156635 -9.3889243422648 0 0 0
144 1 -6.128505352030003 -12.354758591560111 -8.977878441652102 0 0 0
147 1 -2.372804036175568 -10.557672968191543 -11.628800706516621 0 0 0
1104 1 -0.0628555807627933 -11.701927248514243 -11.579401441116044 0 0 0
142 1 -2.670105731584437 -13.021010893498774 -11.169116901553597 0 0 0
213 1 -1.2442652069774134 -12.01863913306949 -9.419573821846972 0 0 0
118 1 -12.131106895136703 -9.053357852477086 -11.135486115306422 0 0 0
65 1 -10.949642963522585 -7.84807555500593 -9.60558764924411 0 0 0
67 1 -13.296595260920714 -9.309129337302306 -9.160919104038586 0 0 0
75 1 -9.747216106057213 -10.11329114672369 -11.26369414003761 0 0 0
74 1 -8.467332150519017 -8.954426204591474 -9.609197520889655 0 0 0
90 1 -4.801349658160218 -9.633981581844399 -11.517907610813147 0 0 0
156 1 -6.063585717079523 -9.849689275422076 -9.45693831960254 0 0 0
172 1 -6.069406526351483 -7.338521403286007 -10.038870312539757 0 0 0
158 1 -3.7019578171455727 -8.363738735462682 -9.883747419767733 0 0 0
151 1 -1.43501895827551 -9.502814547302453 -9.827948522069548 0 0 0
160 1 -1.2794638418955593 -6.96847314440534 -10.293625966923848 0 0 0
109 1 -13.299319466018538 -6.920057596507352 -9.578038496543309 0 0 0
101 1 -13.062897223916314 -4.335283083006614 -10.156992276492245 0 0 0
107 1 -10.839311003539049 -5.514328511831666 -10.084144676538939 0 0 0
63 1 -8.509658276042359 -6.405530169869678 -10.074030846144595 0 0 0
105 1 -8.302532136045206 -3.9743443669994107 -10.700514095108389 0 0 0
72 1 -5.892825482994015 -5.051793181978081 -10.661751778804062 0 0 0
69 1 -3.53240840973943 -3.581840692140169 -11.020960554158151 0 0 0
174 1 -3.5573960975301553 -5.994889024071651 -10.561766069334421 0 0 0
1101 1 -0.9984281128663532 -4.602650691909638 -11.085520209134454 0 0 0
130 1 -12.908108845188721 -1.9359674533669793 -10.902204606737413 0 0 0
99 1 -10.668873843590518 -3.063064394071578 -10.524893908519196 0 0 0
636 1 -11.65090656960811 -0.9841966485945584 -9.002737331306214 0 0 0
582 1 -10.483611789519639 -0.6640951891673037 -11.150259302080348 0 0 0
97 1 -8.1613421713175 -1.5821069307981048 -11.158066146478163 0 0 0
98 1 -9.197762481262142 -1.9208605474649882 -8.907996351827034 0 0 0
62 1 -7.005849732417068 -2.764435315181931 -9.035796614154766 0 0 0
52 1 -7.01947848409905 -0.347636270662937 -9.33222691843049 0 0 0
61 1 -5.715447410257626 -2.661481773176643 -11.135310024004994 0 0 0
60 1 -4.584410682863995 -1.423051856877148 -9.279534151793278 0 0 0
935 1 -12.714387804312464 -12.34332919209529 -0.11221392007104747 1 0 0
59 1 -3.624333400920653 -1.2443731945278138 -11.498184572999875 0 0 0
432 1 -6.574772135588058 -5.669647549533078 -0.07622490268056659 0 0 0
1130 1 -1.0611528780421118 -2.232544879682493 -11.436109574770862 0 0 0
68 1 -2.227447849683678 -2.4978350241259673 -9.345744524874272 0 0 0
78 1 -13.227369651094287 -11.72523507972546 -8.609210038513055 0 0 0
168 1 -10.885201496334307 -12.7535197719929 -8.404144786028677 0 0 0
167 1 -11.988869362779432 -13.068303183348087 -6.229876729782461 0 0 0
180 1 -12.037835266472769 -10.557350513903902 -6.798002727966283 0 0 0
169 1 -9.688113646125553 -11.422442153484493 -6.816992170998762 0 0 0
215 1 -7.0467204089915505 -12.524779731952817 -6.741841523146651 0 0 0
26 1 -1.785664401456227 -2.8943750584195627 -1.0689533506997595 0 0 0
504 1 -3.6972226480861163 -13.264647693146246 -8.956332931084665 0 1 0
217 1 -4.773309760057179 -11.04685108481532 -7.321363589124857 0 0 0
503 1 -4.759839019168082 -13.49454109166356 -6.544129511703547 0 1 0
140 1 -10.76355003964932 -4.185759889617225 -14.463700236137853 0 0 0
212 1 -2.243554931025848 -12.12371713990927 -7.257429210220219 0 0 0
66 1 -12.057529717688505 -8.126450025457222 -7.423921338711355 0 0 0
155 1 -7.183748503919306 -10.005160629358747 -7.230934158347071 0 0 0
182 1 -9.518904741872673 -9.052154745815796 -7.401927083768914 0 0 0
171 1 -7.094427969299714 -7.62840615888444 -7.926631407531369 0 0 0
157 1 -4.815838070460373 -8.80659743435286 -7.8208874408308 0 0 0
230 1 -3.3600344770258257 -7.469152778029836 -6.079206567882617 0 0 0
219 1 -2.2322025994669676 -9.717238842506466 -7.640043046716395 0 0 0
159 1 -2.2997368629228845 -7.299341357824222 -8.245499289853989 0 0 0
220 1 -1.0271755130758624 -8.493597484936227 -6.043341852287403 0 0 0
56 1 -11.845182639370215 -5.7657400699898105 -7.994179801711752 0 0 0
55 1 -10.420223604864992 -4.4955225258035085 -6.149708111572952 0 0 0
57 1 -12.88542131710385 -3.4995103191154033 -6.398213497201427 0 0 0
64 1 -9.5134275691542 -6.7474595031447295 -7.886666494208223 0 0 0
54 1 -9.339578547008934 -4.402241110720087 -8.483678377544555 0 0 0
201 1 -8.165645503857991 -5.536221355016972 -6.1897352713528395 0 0 0
184 1 -6.994485937602077 -5.105634196228328 -8.45844032758055 0 0 0
70 1 -4.65528774732941 -3.9341008805770485 -8.764370142241466 0 0 0
173 1 -4.61502447534855 -6.189497453006185 -8.374245507389446 0 0 0
186 1 -5.8465421151577655 -4.04363148894239 -6.6638664168733825 0 0 0
192 1 -5.762410838590127 -6.480912815656478 -6.156411266795704 0 0 0
177 1 -2.1911935441181054 -4.892599696213322 -8.862666223489779 0 0 0
176 1 -3.4097259928561705 -5.159160958121207 -6.591516868099241 0 0 0
224 1 -0.9933121897079609 -6.086495132728669 -6.570304235197716 0 0 0
178 1 -0.925025880584176 -3.7718270804225327 -7.124704676615812 0 0 0
100 1 -11.618528302511564 -3.3412052560157246 -8.314614192726372 0 0 0
3 1 -12.775787958809381 -0.9671683584678306 -6.8447893649993805 0 0 0
6 1 -10.331553885361968 -2.0971917180175073 -6.738308611588681 0 0 0
53 1 -8.040540189594811 -3.1013954096562877 -6.7210138447848715 0 0 0
666 1 -8.132456436632477 -0.7024906987656472 -7.20725690722229 0 0 0
51 1 -5.581025353782886 -1.7257254537097833 -7.192002109452728 0 0 0
188 1 -3.2094886062468575 -2.7617473490621904 -7.15110869064738 0 0 0
58 1 -3.058619274033836 -0.26650140012184664 -7.689476280867942 0 0 0
1164 1 -0.8631627249261218 -1.2484247554328238 -7.617122328741845 0 0 0
1010 1 -12.958734842176352 -10.87381150296808 -4.601453759736211 1 0 0
204 1 -10.643159868717822 -11.83145380540608 -4.571426308880467 0 0 0
955 1 -13.050871682422272 -13.337192056867934 -3.9863188401493144 1 0 0
527 1 -8.270933174206352 -12.750009838570016 -4.564046341318301 0 1 0
226 1 -8.294289528906436 -10.343973977507858 -5.006462322641637 0 0 0
195 1 -9.352104257716945 -10.640102393629762 -2.912832035789382 0 0 0
216 1 -5.79278292190747 -11.406088041284033 -4.942700186841959 0 0 0
48 1 -3.4006904101041044 -12.309284646374214 -5.079691939745869 0 0 0
522 1 -1.0619662334119742 -13.493310836390895 -4.988197691887038 0 1 0
46 1 -1.2148788209162156 -10.923289681437986 -5.421830084719451 0 0 0
47 1 -2.106473552208831 -11.142422234104615 -3.1312652931027163 0 0 0
179 1 -12.850294536543622 -8.347650582888468 -5.0476739264552 0 0 0
198 1 -11.517535322315213 -7.1211153413898 -3.377935433883895 0 0 0
181 1 -10.665089012764923 -9.359301780162875 -5.211979726786728 0 0 0
199 1 -10.597566830232246 -6.894392764610027 -5.688915864997043 0 0 0
203 1 -11.559437622416123 -9.671273050798241 -2.94024019336776 0 0 0
183 1 -8.04300511495289 -7.9676509357482574 -5.651301108047818 0 0 0
163 1 -9.283184501574844 -8.164621427410879 -3.5630121214492263 0 0 0
202 1 -6.840087534972197 -9.282264415508621 -3.345576741320281 0 0 0
227 1 -4.40118658066617 -10.170587649982915 -3.323126508382753 0 0 0
228 1 -5.885000956640168 -9.036079235487586 -5.562013969143205 0 0 0
229 1 -4.481054652218512 -7.802555451848354 -3.7658918397404637 0 0 0
218 1 -3.547446883187229 -9.874852662038656 -5.632669892078447 0 0 0
41 1 -2.0938978418677845 -8.731551737952717 -3.8195473879410233 0 0 0
197 1 -12.788033603349076 -5.876998014534685 -5.711263290486247 0 0 0
9 1 -11.571450917698979 -4.715379939968662 -3.8779761841743454 0 0 0
200 1 -9.162536412867773 -5.856539852456005 -3.951466183384289 0 0 0
185 1 -6.831656716532249 -4.381147710951977 -4.434977484920232 0 0 0
194 1 -6.753503749374005 -6.821955124203005 -3.9981057248242493 0 0 0
187 1 -4.571715454356466 -5.402428980686075 -4.360339934355196 0 0 0
225 1 -2.1564151493316164 -6.387300524295863 -4.331491723724206 0 0 0
190 1 -2.0705911896922284 -4.09576504556529 -4.856714875200236 0 0 0
5 1 -11.539074164660697 -2.3801280319536637 -4.643272676913339 0 0 0
11 1 -8.97765631505562 -3.4050299819769414 -4.435480433702793 0 0 0
665 1 -9.020276533613856 -0.8169678015091968 -5.001185818843313 0 0 0
208 1 -6.6936280164608775 -1.8908401872431888 -5.028569533556132 0 0 0
573 1 -4.215116436040603 -0.47539130639200167 -5.569937779928649 0 0 0
209 1 -5.362043084778897 -0.640297649342644 -3.342563071138134 0 0 0
210 1 -4.391220276953179 -2.8924557084702176 -5.013382451050457 0 0 0
943 1 -0.5588110576930525 -0.29173411000425986 -3.789254688301643 0 0 0
189 1 -0.6652193421547885 -2.8580852084274895 -3.1665089413237535 0 0 0
196 1 -1.9959716126730562 -1.5929888281457139 -5.458246304542872 0 0 0
211 1 -3.06755965183668 -1.7792531943390308 -3.377871918059668 0 0 0
885 1 -10.454443673093575 -13.2056929435015 -0.20505259422989397 0 1 0
36 1 -11.74130818779853 -12.00752586901385 -2.369921677153382 0 0 0
35 1 -10.23101686563598 -10.725551591556691 -0.6308896857637443 0 0 0
1113 1 -0.013791693589819687 -10.815882754714066 -7.527387025326483 0 0 0
223 1 -9.214727109849422 -13.079694202060187 -2.2711772663284115 0 0 0
44 1 -7.862449554281179 -11.766094108936935 -0.7007659018013523 0 0 0
43 1 -6.824679000431884 -11.643500721028559 -2.9023516041944077 0 0 0
49 1 -4.5279911957436525 -12.403184399518164 -2.7470060243294654 0 0 0
24 1 -5.522469930926627 -12.799288204377385 -0.5638470358992365 0 0 0
23 1 -5.486088414191361 -10.390685840354006 -1.2251701486498305 0 0 0
40 1 -3.1205510537587866 -11.428812028627341 -1.0043167100464174 0 0 0
1078 1 -0.7932540470247265 -12.41319581690519 -0.8177140256177591 0 0 0
205 1 -12.716896113045657 -9.818192133792962 -0.7599081550704199 0 0 0
29 1 -12.742306570420109 -7.407489988199378 -1.1730764670124998 0 0 0
161 1 -10.302870982490708 -8.332494593089056 -1.1149172811872088 0 0 0
42 1 -8.0122910685653 -9.402451005573703 -1.3313779275830147 0 0 0
28 1 -7.865663250569589 -6.948054362991571 -1.6744425077734686 0 0 0
34 1 -5.59977213990628 -8.002759829548278 -1.597596876783527 0 0 0
439 1 -8.900417757904577 -4.724927105847486 -0.11226849327308841 0 0 0
32 1 -3.1819288179621594 -8.908513128882095 -1.6351284156078751 0 0 0
22 1 -0.685119562179775 -10.087010170397164 -1.4843493600037014 0 0 0
38 1 -0.721991224898904 -7.6055533300454705 -2.117734098107279 0 0 0
18 1 -12.710892182605514 -5.013715110191974 -1.7076546582694814 0 0 0
134 1 -1.7241872016957949 -0.5339209263593752 -1.6637843087643187 0 0 0
162 1 -10.11552448745907 -5.961132020733217 -1.7104318597818722 0 0 0
207 1 -7.65864246151948 -4.496830342416743 -2.2026192951635952 0 0 0
10 1 -10.104284953395402 -3.5081107159143556 -2.2934404774169668 0 0 0
139 1 -8.432742695033626 -4.821343636976623 -14.53173199047342 0 0 0
27 1 -4.13627215219536 -4.210725304904017 -0.4375464817914363 0 0 0
193 1 -5.439666970249746 -5.497894635929114 -2.1013571441727237 0 0 0
150 1 -6.401113824606182 -3.2059965286381047 -0.4819473324885166 0 0 0
1 1 -1.9880768978510037 -0.04551920065169135 -9.806616265060608 0 0 0
135 1 -3.124497453812749 -4.096041741102619 -2.719032383011573 0 0 0
30 1 -0.9305882505439413 -5.186341922819631 -2.6818296151914964 0 0 0
191 1 -3.0829095476805204 -6.586377637919271 -1.913444382327505 0 0 0
33 1 -1.9013781461417256 -5.358021743575728 -0.42356248326212587 0 0 0
940 1 -13.753298323262992 -2.7814355770955785 -0.29318712933284985 1 0 0
16 1 -12.597829239523618 -0.17527196914422483 -3.071175820825651 0 0 0
15 1 -11.246675129319158 -1.448718995460986 -0.658525555300356 0 0 0
7 1 -12.447714652682675 -2.7055195595958335 -2.454648538947943 0 0 0
8 1 -13.50452326392893 -0.42008170057759386 -0.9112243805712854 0 0 0
12 1 -10.214311668030547 -1.1076785750741927 -2.855328491945084 0 0 0
409 1 -11.3070819942061 -3.7315051159228148 -0.07134432137364577 0 0 0
1073 1 -13.64111632559597 -10.113830157271957 -12.82367209126195 1 0 0
103 1 -5.848799341902041 -0.09150958615759741 -11.471996960444365 0 0 0
1124 1 -0.01029739418053488 -4.517746412291183 -13.138046076453593 0 0 0
1099 1 -0.09184628878498913 -13.171476665034522 -7.021350300437636 0 0 0
1302 1 -13.101695495184208 -2.8270248157621793 -14.64925263697644 1 0 1
1173 1 -11.36003412000253 -11.20969515428337 1.6556322980472533 1 0 0
932 1 -7.629516778447491 -0.1522017694631721 7.220559148663623 0 0 0
258 1 -2.1354511318775273 -1.9786245597441248 13.625505965816322 0 0 0
366 1 -9.083009861962893 -11.796037086693776 1.3550165773766256 0 0 0
330 1 -6.773123986104086 -13.002665656791894 1.7552993466420421 0 0 0
376 1 -6.619701226681317 -10.536755195750661 1.0606642433950988 0 0 0
331 1 -4.213674370832589 -11.426956484095678 1.1141543888954288 0 0 0
299 1 -1.777662307460382 -12.952514241669942 1.297790809121146 0 0 0
300 1 -1.750863231877565 -10.426209944415334 0.8025145876258417 0 0 0
301 1 -0.3195853891764333 -11.425890309675081 2.902587352592443 0 0 0
375 1 -11.356709764722849 -8.741934919926457 1.0218439352265865 0 0 0
440 1 -10.850665132721646 -7.261333585102305 2.7818702384861016 0 0 0
384 1 -8.992495075760983 -9.425092141754662 0.9316828668384236 0 0 0
438 1 -8.267182218624825 -7.493317528298312 2.7988097303697597 0 0 0
377 1 -9.226759402221873 -6.9177477988183735 0.5690391125383751 0 0 0
378 1 -6.916795330032675 -9.400366563051335 3.0536817423230094 0 0 0
339 1 -6.897283125832483 -8.33295389050843 0.4822990095096795 0 0 0
338 1 -4.247528588666544 -9.125872829729085 0.4855750161285073 0 0 0
379 1 -5.761806741268349 -7.051629958074513 2.3468290179591254 0 0 0
386 1 -3.398800562824192 -7.156996664533369 2.3160896492976892 0 0 0
333 1 -4.501112610465185 -9.394845680101533 2.7873319860749373 0 0 0
340 1 -2.004209464678212 -9.233288791630233 2.798174398427685 0 0 0
410 1 -11.5647772869556 -6.22479051210735 0.46080254914708263 0 0 0
416 1 -12.32533845677287 -4.2353475056647305 2.0123302248976263 0 0 0
730 1 -5.1855759914290385 -0.13460369773549452 7.204674431811773 0 0 0
408 1 -9.976572943056869 -4.904390177021007 2.1949863652055353 0 0 0
437 1 -7.77085143864257 -5.439957563667269 2.0771025975828596 0 0 0
431 1 -5.310706828027463 -4.695749743964413 1.8226439063866042 0 0 0
1449 1 -12.204498412362748 -12.783073103860204 14.589538069950693 1 1 -1
341 1 -1.038921734951641 -6.852041495463444 2.0790128637357963 0 0 0
387 1 -2.9711317512979125 -5.000264311013286 1.736287011460421 0 0 0
390 1 -0.5068804274183893 -4.568267130197652 1.4923600759590467 0 0 0
395 1 -12.176759262181577 -1.9728854730472083 1.5244426740995518 0 0 0
402 1 -7.486216464733402 -3.2248235838704122 1.6219428816305008 0 0 0
407 1 -9.705117843505043 -2.5607445895740835 1.6525793944231335 0 0 0
392 1 -7.359981574572253 -0.8951877680058686 1.1304601015613809 0 0 0
394 1 -9.950422451582359 -0.2216531749704309 1.0880058183820065 0 0 0
430 1 -4.956824259507663 -2.1130411387370422 1.2059697104216696 0 0 0
391 1 -0.25089580996121974 -2.1556171195330904 0.7499003022615938 0 0 0
427 1 -2.5853388114089046 -2.713804192564254 1.1518705714200017 0 0 0
400 1 -2.7563980712580367 -0.40141998305964144 0.6490909580423008 0 0 0
241 1 -0.6387313650601563 -0.7887190073310393 2.688505874579784 0 0 0
356 1 -12.440875022760238 -11.71759710342617 3.916632540529056 0 0 0
358 1 -10.665540299026315 -10.242745624467716 5.536208072711327 0 0 0
313 1 -10.020334231950002 -11.964759625831483 3.7868562806814605 0 0 0
323 1 -7.707159981092185 -11.71175653535217 3.519117312571895 0 0 0
332 1 -5.162658670559587 -11.691093718938326 3.4019722104433594 0 0 0
287 1 -4.179542137514913 -12.337241723694179 5.579161860876921 0 0 0
324 1 -6.645924287910145 -12.321811612612569 5.738707847806404 0 0 0
294 1 -2.833155786020958 -11.600637398055502 3.158480935374074 0 0 0
295 1 -1.6817548067790185 -12.222653576895482 5.338523967282365 0 0 0
1181 1 -13.21316096982206 -6.920481526387873 2.80563292367677 1 0 0
367 1 -11.766713406658404 -9.471943093009926 3.368782939986131 0 0 0
448 1 -12.38145481250007 -7.941975916475113 5.116439462357567 0 0 0
369 1 -8.36995326514676 -10.255839031167396 5.32533555289112 0 0 0
446 1 -9.951382757941214 -8.002701149034266 4.924423929750462 0 0 0
368 1 -9.41871842795426 -9.644662217226077 3.2564146767875233 0 0 0
370 1 -7.543366558576033 -7.908495099798394 4.903044372701276 0 0 0
325 1 -5.945719328424005 -10.079808154842574 5.220173683210371 0 0 0
380 1 -5.124268693769565 -7.727424141591485 4.64661716640129 0 0 0
334 1 -3.4981229992623764 -10.047940923114266 5.092636810261508 0 0 0
296 1 -0.9699232110398057 -9.9564297054395 4.7797275580577345 0 0 0
335 1 -2.635986988691535 -7.731621900881215 4.487166739116562 0 0 0
342 1 -0.32873329743867963 -7.6214369127991795 4.292735197680029 0 0 0
447 1 -11.522568447745106 -5.617257730487397 4.377177422484538 0 0 0
445 1 -9.18390137416445 -5.858035040733172 4.3595547359737115 0 0 0
406 1 -8.562568477464005 -3.6732848943366267 3.8398331177681246 0 0 0
436 1 -6.731557089763448 -5.754087689455551 4.316595337098546 0 0 0
381 1 -4.460951075632336 -5.493842040088506 3.961352472499362 0 0 0
434 1 -5.183497991969983 -4.051009509383723 5.8185254977607155 0 0 0
388 1 -2.009845715651025 -5.430613152600047 3.8492492555331435 0 0 0
383 1 -2.7794463678097223 -3.868352613567513 5.551156878411307 0 0 0
267 1 -0.34164247326580544 -3.7721796405826407 5.306685870186074 0 0 0
1194 1 -13.384368430313684 -3.3393634463598136 4.144082828201922 1 0 0
414 1 -10.91266684124759 -3.2138518288840885 3.873860957280046 0 0 0
397 1 -12.820224920283934 -0.9750905371913561 3.4860293468577392 0 0 0
393 1 -10.548167222825946 -0.8360670371075898 3.329278245030027 0 0 0
396 1 -11.697570749826003 -1.7573596183427203 5.7374146347324295 0 0 0
405 1 -8.004869975972417 -1.2278133285183852 3.4664941551490127 0 0 0
412 1 -9.33245993630905 -1.766767892046861 5.6460586470699585 0 0 0
404 1 -6.795128441099936 -1.8806993950154176 5.483200340960364 0 0 0
401 1 -5.43625722272863 -1.0714166343679583 3.184728814287725 0 0 0
435 1 -6.201559656901391 -3.3990142730309465 3.638985273912704 0 0 0
429 1 -3.8797232049822057 -3.251450923561986 3.4014725754722672 0 0 0
433 1 -4.350799466810965 -1.6049824130059474 5.404206711195782 0 0 0
428 1 -3.002369076302175 -1.1115850633396551 2.9145737860082743 0 0 0
389 1 -1.3416761229170362 -3.0920842902165777 3.2086482925743756 0 0 0
240 1 -2.067136078496665 -1.6491156653198367 5.095346647799088 0 0 0
357 1 -11.40722923272687 -12.460141889814272 5.999304500769613 0 0 0
349 1 -12.136825933201106 -10.844421442142389 7.803210547948892 0 0 0
348 1 -12.664965121860233 -13.134702917976496 8.486694355059742 0 0 0
306 1 -10.423439897633171 -13.108674496776601 8.162019495633642 0 0 0
314 1 -8.921434244409463 -12.538949329239244 5.892727219335699 0 0 0
359 1 -9.68724965834695 -10.821863729222274 7.70886762492662 0 0 0
316 1 -7.250867224764823 -10.747278987851303 7.688322607274584 0 0 0
315 1 -8.032321906591292 -13.13355348170204 8.23513098907796 0 0 0
281 1 -5.528145219142786 -13.003380854200811 7.974224902782177 0 0 0
326 1 -4.793992404526957 -10.829062598478997 7.377333814131953 0 0 0
234 1 -4.6352439555631975 -1.998067414451528 13.8045440523963 0 0 0
288 1 -3.110673459858818 -12.974388289176913 7.810128628642142 0 0 0
272 1 -0.6195329099205313 -12.946588123693845 7.532317479656156 0 0 0
289 1 -2.4340078464649935 -10.681784121645387 7.165151190974806 0 0 0
1172 1 -13.073706942144714 -10.178532103850891 5.794285819997425 1 0 0
455 1 -11.299402442906839 -8.56076495337229 7.326881392491108 0 0 0
360 1 -8.981679627956282 -8.553171925829892 7.170519857901011 0 0 0
371 1 -6.533839437848409 -8.537456562314244 6.941510746412581 0 0 0
327 1 -4.2559600577309045 -8.404629840891378 6.759389753612298 0 0 0
373 1 -4.83474282383907 -6.903485618093681 8.576574063144411 0 0 0
336 1 -1.7136672353294493 -8.386405732383412 6.638390121994535 0 0 0
291 1 -0.7901545086369719 -9.086933697495951 8.896770443009876 0 0 0
456 1 -12.992951157935284 -6.348255318730301 6.989069343201605 0 0 0
415 1 -12.3477965200853 -4.0258413735482215 6.179062135900166 0 0 0
454 1 -10.574766222936603 -6.345862275112925 6.724844464318386 0 0 0
420 1 -11.47431382031925 -4.8325312955402 8.540085663016717 0 0 0
443 1 -7.675660815144316 -4.022017224553867 6.062137802434561 0 0 0
413 1 -10.021081165996922 -4.0374011966282985 6.253712023310824 0 0 0
444 1 -8.206047492558225 -6.322364539661062 6.7126808046706135 0 0 0
452 1 -9.00847859533587 -4.614159034987111 8.420122895660283 0 0 0
442 1 -6.627016975472697 -4.665009459817242 8.258834648686799 0 0 0
372 1 -5.885227891370198 -6.194992991258447 6.480428050323296 0 0 0
374 1 -4.1447124132654665 -4.6313177937575425 7.963578711851531 0 0 0
329 1 -2.475112924188604 -6.961094426259742 8.414597851950434 0 0 0
382 1 -3.4379599059528942 -6.082222035892888 6.0591866345823195 0 0 0
337 1 -0.9495850072542673 -5.993370240623065 6.036481153017947 0 0 0
264 1 -1.797931794870511 -4.60509830813082 7.845706076521514 0 0 0
421 1 -13.264799196170156 -2.498747321815875 8.185323696865863 0 0 0
419 1 -10.808230073459258 -2.446885894727547 8.002881402734198 0 0 0
928 1 -12.511405709590044 -0.24858283296043915 7.673064424698643 0 0 0
925 1 -10.102226267347822 -0.1889769355705173 7.538158973246697 0 0 0
385 1 -4.461307164170961 -6.734768317939371 0.1231666415304371 0 0 0
411 1 -8.343550006250126 -2.359149123727784 7.82757859458682 0 0 0
266 1 -0.11678016690603776 -2.809365862766457 9.419328433746736 0 0 0
441 1 -5.760293992644421 -2.508022999953786 7.612719322469529 0 0 0
238 1 -3.4466890015949936 -2.3612071765246565 7.411245422425667 0 0 0
265 1 -1.0530804343893134 -2.3727982896931827 7.126412958298436 0 0 0
1221 1 -13.466126118270068 -11.51897258765674 10.371415842513924 1 0 0
350 1 -11.107155244926876 -11.552637526385038 9.876298587230925 0 0 0
308 1 -8.762319948862299 -11.433486304271662 9.877909175711265 0 0 0
344 1 -1.9387955481495123 -7.953051423800816 0.05665956782117121 0 0 0
317 1 -6.312177319943952 -11.42488152474923 9.813377127766737 0 0 0
283 1 -3.8536152906310317 -11.428557959904763 9.49555337807974 0 0 0
290 1 -1.393294524432246 -11.409234552218757 9.51276367763573 0 0 0
271 1 -0.3767572514149933 -12.07357572896869 11.442165518452112 0 0 0
284 1 -2.846267985902154 -11.971119479330959 11.543003590487737 0 0 0
712 1 -2.62092749799851 -0.002843136440498384 6.980407138891115 0 0 0
1236 1 -13.610594191260414 -7.856428433686287 11.656702600340099 1 0 0
462 1 -12.737848424305596 -9.325861715366809 9.822891261258802 0 0 0
460 1 -11.121070837176093 -7.6308320440031805 11.4383046226167 0 0 0
461 1 -12.025525182435667 -7.095028567634577 9.187728051584996 0 0 0
351 1 -10.34652633945942 -9.21233604723544 9.543605120622223 0 0 0
362 1 -7.350222208165141 -6.970675308638175 8.839674184641483 0 0 0
453 1 -9.707805510115847 -7.014940652293597 8.994689095454861 0 0 0
353 1 -8.669142234500134 -7.612587201239625 11.297164157579116 0 0 0
361 1 -8.03211946264847 -9.158705438017925 9.400355965857324 0 0 0
352 1 -9.426719659493422 -9.881038530050688 11.621504363601803 0 0 0
310 1 -7.021890733115387 -9.831953942184372 11.591576193346926 0 0 0
318 1 -5.573668973409607 -9.122844445723608 9.109408138680307 0 0 0
363 1 -6.282605669775698 -7.601180642880941 10.945587198622084 0 0 0
320 1 -3.912216142383718 -7.6013354622875 10.732889255053708 0 0 0
319 1 -4.7183180359877746 -9.796583343037888 11.38900562671274 0 0 0
328 1 -3.2147287659137778 -9.244247711629674 8.901451600865533 0 0 0
285 1 -2.1584711538192067 -9.773560307520876 11.093602704177597 0 0 0
251 1 -1.4898058158247185 -7.5136341746712505 10.608741238802233 0 0 0
425 1 -12.856845456811094 -5.538638105988733 10.819997277089731 0 0 0
459 1 -10.522252109684022 -5.378769356143296 10.949880424208112 0 0 0
451 1 -8.147977052014065 -5.33139371527791 10.674830171809022 0 0 0
364 1 -5.69996572208821 -5.301898527441329 10.418199328997849 0 0 0
259 1 -3.2939937937398955 -5.304065800134884 10.207909627343193 0 0 0
252 1 -0.8953837674897276 -5.20328319380925 9.979172960242456 0 0 0
261 1 -1.5770948693333473 -3.5579116233473034 11.723990992378882 0 0 0
424 1 -12.197721665551455 -3.1329253472008958 10.431882789958808 0 0 0
398 1 -11.472361200207985 -0.8794594309573007 9.945245096950883 0 0 0
418 1 -9.849559840462238 -3.1909817384074746 10.38032992011634 0 0 0
417 1 -8.958531084629914 -0.9677595676632684 9.666541046369511 0 0 0
450 1 -7.405051846887348 -3.0830362732445753 9.998826072371225 0 0 0
233 1 -5.613644896486159 -1.5172397468035559 11.621159175458969 0 0 0
243 1 -6.520392298172511 -0.838763547210494 9.460005207214541 0 0 0
235 1 -4.929916056572258 -3.108764438800126 9.890545102055919 0 0 0
236 1 -4.120570991490599 -0.8845680781468115 9.287560203669456 0 0 0
237 1 -3.133252467773257 -1.3378137561087797 11.493723604579317 0 0 0
239 1 -1.7156195877124585 -0.7916474252370787 9.15320586821157 0 0 0
260 1 -2.4769251353898465 -2.919885387406895 9.586015949834161 0 0 0
262 1 -0.7538427450862866 -1.3467183614681204 11.263828196860674 0 0 0
1180 1 -13.595459305982333 -10.404168324985186 1.5963117099495054 1 0 0
305 1 -10.777297609142728 -10.700534966083243 13.900084845625246 0 0 0
345 1 -12.5627352599528 -12.29270765503071 12.370370453330546 0 0 0
125 1 -13.0026977126276 -10.62185130240877 14.280826529626188 0 0 -1
719 1 -8.791660528600573 -0.04963045078526562 13.63319507898864 0 0 0
304 1 -10.334738094873629 -12.245253119111114 12.106475628078735 0 0 0
309 1 -7.721140264604656 -12.101910634139724 12.153225075822936 0 0 0
85 1 -8.413324423627792 -10.789822221968299 13.923858020564 0 0 -1
127 1 -6.675259461065807 -12.66234752176738 14.256054482150413 0 0 -1
278 1 -5.278657697601698 -12.04041649461734 11.982244319260419 0 0 0
93 1 -4.3569540868901875 -12.794045633268027 14.135619129383175 0 0 -1
311 1 -5.992793979920333 -10.497163373505526 13.853047123507723 0 0 0
280 1 -3.3758568781568528 -10.395432717457215 13.505414014425012 0 0 0