LAMMPS data file via write_data, version 2 Aug 2023, timestep = 0, units = metal

1864 atoms
3 atom types

-13.56886314681792 13.56886314681792 xlo xhi
-14.197993345919564 14.197993345919564 ylo yhi
-14.271041970213208 14.271041970213208 zlo zhi

Masses

1 55.847
2 1.008
3 1.008

Atoms # atomic

121 1 -10.393069686300548 -13.18354810560951 -13.70507228952647 0 0 0
120 1 -11.907810729112029 -13.285376039146337 -11.60380081224279 0 0 0
116 1 -8.114513533986997 -13.252737430852145 -12.784181461783815 0 0 0
144 1 -5.802669663709997 -13.35787602736583 -11.874446656154952 0 0 0
114 1 -4.176841739457473 -13.110413564049608 -13.7312647244723 0 0 0
141 1 -1.929685772142177 -13.267560616395432 -12.947162125265248 0 0 0
131 1 -12.428170134133607 -11.245785486542808 -12.965185362376824 0 0 0
310 1 -10.224742944756727 -9.15445514662327 -13.21845903439314 0 0 1
113 1 -12.704386551731284 -9.113403306109866 -14.076985259455956 0 0 0
122 1 -10.139270455620721 -11.303037284138474 -11.890231323761 0 0 0
123 1 -8.503232769031321 -11.124375770354735 -13.821196664329115 0 0 0
124 1 -7.992240237668247 -9.274039752275462 -12.351492089996231 0 0 0
117 1 -6.016172827388893 -11.238895243904823 -13.024700449818624 0 0 0
146 1 -3.7318093956451346 -11.26748071201106 -12.179092929253553 0 0 0
118 1 -4.2899609216400325 -9.029345147188648 -13.346094167435515 0 0 0
155 1 -5.758374297400398 -9.361902469654485 -11.464445160179377 0 0 0
222 1 -11.131923451524186 -14.091843185966594 -1.4828881341759583 0 0 0
148 1 -1.7580136833340543 -9.265089217255582 -12.471670662362314 0 0 0
142 1 -1.4541743806528409 -11.39264540405795 -11.218474037582256 0 0 0
33 1 -13.350348314940097 -9.418340475066511 -9.235437375296513 0 0 0
16 1 -12.138581192573003 -7.1582461918569384 -12.607802687610647 0 0 0
135 1 -8.3565439402408 -7.063632593168941 -13.588250214156428 0 0 0
134 1 -9.834531771234449 -7.258624134115917 -11.620135273943326 0 0 0
126 1 -5.960949559916551 -7.187322390341581 -12.7833607954257 0 0 0
157 1 -3.601061369315131 -7.172748662289149 -11.818669106019613 0 0 0
119 1 -2.0334780054725314 -7.155109250208242 -13.699635381159252 0 0 0
3 1 -12.481971993331673 -4.997649118364841 -13.6500393336676 0 0 0
26 1 -11.887153906951863 -3.1581409605983737 -12.162580005308243 0 0 0
4 1 -10.557507063737201 -2.984262182730374 -14.10002798816463 0 0 0
18 1 -10.182409452385343 -5.149689394440809 -12.791318238340581 0 0 0
136 1 -7.8013686404695735 -5.202891035858835 -12.056421711968692 0 0 0
20 1 -8.178277827024273 -3.014648183390852 -13.03014004322881 0 0 0
127 1 -4.135733559189358 -5.160874110794136 -12.940268474958218 0 0 0
138 1 -5.888309572702237 -3.107031148463623 -12.182041028463065 0 0 0
137 1 -6.390423807397378 -5.056900877697661 -13.935337759447743 0 0 0
171 1 -3.5156408632941183 -3.2165927189476893 -11.30933862710915 0 0 0
213 1 -8.728132899208791 -14.07741379903583 -0.6633816971182807 0 0 0
159 1 -1.6547177930591683 -5.2019527090177675 -12.171208154017279 0 0 0
128 1 -2.028899998781803 -3.110437212920967 -13.266964709376847 0 0 0
1009 1 -0.20914505673934336 -5.113588753016739 -13.99189570691682 0 0 0
5 1 -12.382409371311262 -0.9760413184071179 -13.353702854939336 0 0 0
31 1 -10.060819427709857 -1.1448704980315654 -12.404457057943773 0 0 0
21 1 -7.828114830902237 -1.2596642407608183 -11.463190524552646 0 0 0
275 1 -2.2839269740080077 -11.131259234070685 -14.038983465267894 0 0 1
22 1 -6.194321351628768 -1.0698275281102134 -13.438961222108516 0 0 0
139 1 -3.761101933542516 -1.1898095522182093 -12.687398699500253 0 0 0
1 1 -1.5338152444308708 -1.2506581116402202 -11.846042963089015 0 0 0
334 1 -4.472695896810654 -12.218498607582555 -0.2918141050497347 0 0 0
102 1 -4.536010818432622 -1.9641746835823586 -0.5763429641389575 0 0 0
150 1 -11.235194730894582 -13.517013672023518 -9.017821623900662 0 0 0
163 1 -11.700537596062462 -11.289055682754734 -10.153873087437601 0 0 0
151 1 -9.563804948588746 -13.389519125762803 -10.939894381304494 0 0 0
143 1 -7.37646828331153 -13.502398655254735 -10.025710899641648 0 0 0
152 1 -9.098130306851992 -11.47673209288344 -9.375272294430914 0 0 0
177 1 -5.023114128295418 -13.611555821300607 -9.169104502812672 0 0 0
140 1 -3.54885616609025 -13.465001082435556 -11.092212305847534 0 0 0
145 1 -5.383980973210386 -11.505845374413997 -10.35041331729013 0 0 0
174 1 -1.2634323083010344 -13.481311362554047 -10.152820678016731 0 0 0
175 1 -0.654459319939221 -11.60383121952221 -8.6823538821363 0 0 0
179 1 -3.0167635894042473 -11.51984627271015 -9.422318341185939 0 0 0
132 1 -11.841476906124962 -9.264768264275279 -11.319902270244244 0 0 0
25 1 -13.479955471623388 -3.2967304598839853 -10.166598764974857 0 0 0
153 1 -7.6930659319447114 -11.278796403294237 -11.174353997880884 0 0 0
165 1 -9.537906715712065 -9.388091744241855 -10.403186765103234 0 0 0
154 1 -7.113330108127163 -9.364231621495248 -9.42261271772312 0 0 0
188 1 -4.839307262119643 -9.662919020125205 -8.679188346158197 0 0 0
147 1 -3.304320023617466 -9.443081934191873 -10.592564771477214 0 0 0
181 1 -0.9570502664268385 -9.490427541616981 -9.779192941691214 0 0 0
35 1 -11.326011805177197 -7.364235447922127 -9.858162919196756 0 0 0
167 1 -7.585152750666853 -7.3263856887019205 -10.77980801604076 0 0 0
166 1 -9.034143741708547 -7.525307617951006 -8.781253756442315 0 0 0
156 1 -5.2534887588653145 -7.398552166051095 -10.096320461008244 0 0 0
149 1 -1.3416010952131607 -7.315666653367542 -10.81488443759735 0 0 0
190 1 -2.984904636181602 -7.358680247804308 -9.122303902935833 0 0 0
47 1 -13.198626798769155 -5.3612867569877345 -8.806640425576568 0 0 0
17 1 -11.642636685910682 -5.277241791268844 -10.90140984573138 0 0 0
49 1 -11.120826616074718 -3.303766138470923 -9.257407754045623 0 0 0
19 1 -9.655693222961112 -3.259991895503653 -11.252064085555888 0 0 0
168 1 -6.987100173984207 -5.429522006219219 -9.117047314650042 0 0 0
37 1 -9.261768909078953 -5.2953797846732495 -9.967638763162231 0 0 0
39 1 -7.377209327392794 -3.370586108813262 -10.389643858666947 0 0 0
169 1 -5.520384346378437 -5.170324646964172 -11.051672654649526 0 0 0
170 1 -5.142971386840227 -3.3228508964450043 -9.521177657783802 0 0 0
158 1 -3.0960366387785285 -5.30161641355436 -10.145843048542222 0 0 0
192 1 -0.7502815643818437 -5.403448228699858 -9.370563603809607 0 0 0
160 1 -1.1361172472062737 -3.2980949147755485 -10.622754842230679 0 0 0
205 1 -2.6358623766804605 -3.396789686109832 -8.666145731946838 0 0 0
27 1 -11.720292227475463 -1.3715507309617365 -10.580103519902135 0 0 0
52 1 -13.08453029055158 -1.413525602444233 -8.502940008769421 0 0 0
51 1 -9.251601421280828 -1.3510302286826033 -9.583527195755924 0 0 0
45 1 -6.851994169815596 -1.3905989810477184 -8.74823854243862 0 0 0
46 1 -5.358991915783307 -1.2225669620332287 -10.685637957916077 0 0 0
172 1 -3.0801966787715056 -1.2861236337547144 -9.902309443630756 0 0 0
2 1 -0.7754535096444286 -1.3795254929618341 -8.978512483550633 0 0 0
195 1 -12.698267800462691 -13.78426992083274 -6.994695046563325 0 0 0
197 1 -10.749580328778437 -11.685920891152033 -7.40957887318397 0 0 0
183 1 -10.290758731889627 -13.784322532040274 -6.1545389880411285 0 0 0
162 1 -13.125268232295781 -11.603649206679105 -8.107275009957572 0 0 0
186 1 -6.865803134885518 -11.624768250405054 -8.421139984749395 0 0 0
184 1 -8.859059516845118 -13.552158065302066 -8.137844287862233 0 0 0
185 1 -8.452701201873431 -11.679023437873642 -6.531415575234287 0 0 0
176 1 -6.533401340645299 -13.692284480443423 -7.253729934512567 0 0 0
209 1 -4.236797847185834 -13.897850099468519 -6.524943230293347 0 0 0
178 1 -4.524868535418388 -11.729774944705426 -7.572695787264428 0 0 0
173 1 -2.670077811307566 -13.699898366808132 -8.41851734168144 0 0 0
211 1 -2.2396354792889213 -11.56901585380313 -6.710836115525259 0 0 0
1056 1 -0.41802146143205654 -13.715650298357405 -7.394416751536069 0 0 0
164 1 -10.976423282576764 -9.501583791279323 -8.534358152116532 0 0 0
54 1 -12.604275948451697 -9.708169430949933 -6.642781132850608 0 0 0
198 1 -10.254017994776769 -9.738718034211631 -5.727443192301276 0 0 0
199 1 -8.756677353365863 -9.595165158069257 -7.655758759486619 0 0 0
187 1 -6.4212953511666475 -9.704034245841946 -6.867870415282611 0 0 0
218 1 -4.076794966959133 -9.755114938627095 -6.048444357443438 0 0 0
180 1 -2.5379652052285433 -9.603837778365982 -7.823532124414951 0 0 0
1062 1 -0.20821413350923734 -9.560488683459674 -6.973385202258597 0 0 0
7 1 -12.878917428549856 -7.489482876766694 -7.618335848346278 0 0 0
56 1 -10.540231758711322 -7.503318847463141 -6.928508230285334 0 0 0
200 1 -8.241828800942885 -7.6982849349531195 -6.093619733453021 0 0 0
201 1 -6.624551041734914 -7.388000778510935 -8.029241869190262 0 0 0
189 1 -4.464342100701625 -7.533509975711169 -7.220924301333749 0 0 0
182 1 -0.6337697821517949 -7.558451291746428 -8.194263765038777 0 0 0
220 1 -2.100531886773318 -7.699884571056107 -6.394511666202591 0 0 0
64 1 -12.482801797436052 -5.538555027763456 -6.043997230577071 0 0 0
36 1 -10.923705743098756 -5.40732156253628 -8.176587437737883 0 0 0
48 1 -12.729076928810246 -3.5361057838833414 -7.477399311485847 0 0 0
66 1 -10.506703299657985 -3.7377126540391856 -6.477456958395965 0 0 0
38 1 -8.755642465631226 -3.5332420656168058 -8.462654309174923 0 0 0
58 1 -8.486978141245997 -5.589840833808614 -7.226428231298445 0 0 0
202 1 -6.272794338550383 -5.676431801294889 -6.407203748690051 0 0 0
60 1 -6.431217935590375 -3.480851898748238 -7.54082270222567 0 0 0
203 1 -4.6316131640405125 -5.308231597411529 -8.312262427529241 0 0 0
204 1 -4.198947625350542 -3.5094139733958833 -6.743082791162712 0 0 0
191 1 -2.347328991381964 -5.545903877646525 -7.299641755799028 0 0 0
193 1 -0.2937476270832011 -3.3777580895739288 -7.909661669806259 0 0 0
233 1 -1.7808521670918278 -3.491681517723226 -5.999807208603533 0 0 0
372 1 -2.298605941261764 -5.953025002460148 -0.10223626834686783 0 0 0
50 1 -10.699858701573248 -1.4892601403937054 -7.645849468718373 0 0 0
70 1 -12.389502651869694 -1.6357326009748103 -5.839893364332884 0 0 0
68 1 -8.374632526459894 -1.5484505119163465 -6.80648110011387 0 0 0
62 1 -4.572250758573626 -1.5035167174542359 -7.8505430751292415 0 0 0
61 1 -6.126105658666312 -1.6058571649424742 -6.060227999543562 0 0 0
206 1 -2.340490006931157 -1.512777049366056 -7.149491547900861 0 0 0
196 1 -12.236600081171535 -11.728775605121607 -5.356217448777148 0 0 0
71 1 -11.947745764563242 -13.913940622398357 -4.251411305590096 0 0 0
225 1 -10.027409347569337 -11.785181627862436 -4.547690262315324 0 0 0
215 1 -7.709261684904079 -11.874064956286011 -3.8626193710575567 0 0 0
214 1 -8.068515394153447 -13.761106498981395 -5.363837299787944 0 0 0
223 1 -9.655670981915295 -13.988746792494407 -3.443543769837744 0 0 0
216 1 -6.119361024773688 -11.802191453350922 -5.652509217273366 0 0 0
210 1 -3.7338724357266777 -11.897937268908569 -4.761425279373608 0 0 0
208 1 -5.6875626166543265 -13.833637673437673 -4.52687814703096 0 0 0
42 1 -5.2477791782494485 -11.947240740612024 -2.920020341995899 0 0 0
75 1 -3.4087186076848663 -14.026607793187694 -3.634346245768505 0 0 0
207 1 -1.9341909038627758 -13.726268361054064 -5.615428748544565 0 0 0
73 1 -1.4356297811614915 -11.893591417823533 -4.007474406855435 0 0 0
1003 1 -1.061978739900832 -13.98948090302495 -2.7967112927029874 0 0 0
77 1 -12.002563932014791 -9.872532030918983 -3.9009188487489403 0 0 0
227 1 -8.028401651279797 -9.775777051238565 -5.000952430678465 0 0 0
226 1 -9.556387875685392 -9.862990729825967 -3.0508750179535102 0 0 0
217 1 -5.564523159629752 -9.838961399152574 -4.20881228018885 0 0 0
40 1 -3.3294048397375455 -9.951938024772563 -3.1809775172940995 0 0 0
212 1 -1.8186241800474168 -9.688292374555196 -5.055640512120252 0 0 0
55 1 -12.152976919543057 -7.683362851255017 -4.958816925075315 0 0 0
88 1 -11.72709042273926 -5.70273687554308 -3.368926145687036 0 0 0
79 1 -9.849560916525935 -7.7940763510664075 -4.217593948757978 0 0 0
228 1 -7.52144742372883 -7.887029106787787 -3.2586988652593902 0 0 0
81 1 -7.713486258035808 -5.818293925468895 -4.459202971151175 0 0 0
229 1 -6.030329376411265 -7.744944307761364 -5.203853974793928 0 0 0
219 1 -3.5814531941130436 -7.685941045345821 -4.509441234525095 0 0 0
230 1 -5.449012282904837 -5.808457612313049 -3.6628387403468388 0 0 0
29 1 -1.381668404694521 -7.828667757716396 -3.4771090559307574 0 0 0
221 1 -1.5535740736813786 -5.71090802900123 -4.7213750355572 0 0 0
65 1 -12.076317250820452 -3.6492035877000433 -4.559088766590088 0 0 0
59 1 -8.225150575510733 -3.7271839288702893 -5.768719166213202 0 0 0
57 1 -10.10045565114002 -5.718856495544868 -5.294352619251118 0 0 0
90 1 -9.62711496656919 -3.7940536876294235 -3.68905150941894 0 0 0
82 1 -7.334000835102325 -3.8442346180220444 -2.910924352791932 0 0 0
231 1 -3.8649777076358642 -5.510294677841523 -5.46147257311044 0 0 0
83 1 -5.728253964896681 -3.799951372408744 -4.786457097239342 0 0 0
232 1 -3.4456020570010075 -3.654671819511103 -3.88229582060036 0 0 0
9 1 -1.053414131131614 -3.718208240664822 -3.209357576879146 0 0 0
95 1 -11.665201611689941 -1.6609787713007975 -3.0638116194538796 0 0 0
67 1 -10.026686281182972 -1.711386657636588 -4.891407645772283 0 0 0
92 1 -7.705677868033709 -1.8183947084676664 -4.230344495740592 0 0 0
85 1 -3.805305025428348 -1.6546499973679811 -5.223980220029702 0 0 0
84 1 -5.365036923099002 -1.741425284392447 -3.3024468314343896 0 0 0
234 1 -1.4602564904508526 -1.7031001775397279 -4.412555784798455 0 0 0
224 1 -11.538700208490742 -11.953023879206295 -2.654121225435407 0 0 0
395 1 -13.013346458875452 -12.01269061290462 -0.7997463980412807 0 0 0
406 1 -4.533395715927458 -2.9972200876316037 -14.198704744473385 0 0 1
632 1 -7.351245223428988 -13.98437506455941 -2.7060934454522414 0 1 0
24 1 -9.118822029820315 -12.021184139709078 -1.8533995159129066 0 0 0
74 1 -4.923590051672891 -14.064624153165846 -1.7175380791068076 0 0 0
43 1 -6.725572782317382 -12.036525261705576 -0.9730757481379158 0 0 0
125 1 -6.570148297517973 -9.249510252123141 -14.228672273572748 0 0 0
103 1 -3.0273641309965154 -1.7414155471373611 -2.4184674474895154 0 0 0
314 1 -0.5341242694853872 -12.09160477497285 -1.2040892965340735 0 0 0
111 1 -2.8721325259780883 -12.044856572526356 -2.0291403023825083 0 0 0
76 1 -13.366447659958624 -9.89152574255548 -1.9151679419509655 0 0 0
97 1 -11.000677890761967 -10.046426438591354 -1.0980437176284852 0 0 0
385 1 -8.661889239129032 -10.188270347291285 -0.20317774470185057 0 0 0
15 1 -7.196805526134657 -10.056722422642167 -2.263112126280065 0 0 0
14 1 -4.797658583457704 -10.074511677729205 -1.3356763311780089 0 0 0
41 1 -2.490082541164579 -10.078266136544102 -0.4693549581382097 0 0 0
72 1 -1.0865502798270548 -10.001113965447788 -2.346263187319421 0 0 0
87 1 -13.205661517604893 -5.839865804798533 -1.4381544405658957 0 0 0
104 1 -12.922830271099059 -8.112753098377972 -0.37970446380189493 0 0 0
78 1 -11.517369732155803 -7.761041590799669 -2.3110537750261066 0 0 0
105 1 -10.915714612603075 -5.8275439209803 -0.6792489399725312 0 0 0
98 1 -9.03730538945604 -8.058747341485947 -1.477852263696013 0 0 0
99 1 -6.930983726558964 -5.928264217717606 -1.7620105933228167 0 0 0
80 1 -9.447913493891622 -5.974782560015489 -2.604121267192255 0 0 0
437 1 -6.748873800590727 -8.064398920284344 -0.4583095689574268 0 0 0
13 1 -5.167110648819083 -8.063147640911623 -2.4711989184458876 0 0 0
12 1 -4.728040903476604 -6.010683471616172 -0.9751160218548023 0 0 0
11 1 -3.0581994189393527 -5.767260081040604 -2.8427259434618293 0 0 0
161 1 -13.557275635121995 -13.495234308856697 -9.802317993280017 0 0 0
30 1 -2.8147262394404446 -8.005131452127884 -1.6607368931453745 0 0 0
110 1 -0.4797398249338318 -8.17953743334777 -0.9520704391021333 0 0 0
28 1 -0.7566337576697411 -6.0483705372170125 -2.0266133822670085 0 0 0
107 1 -6.906278795190852 -1.9511119487237298 -1.293137071899002 0 0 0
8 1 -0.7156933536831147 -1.835615002469142 -1.7465839041984825 0 0 0
89 1 -11.291512462848774 -3.8060032886482595 -1.9090299373988717 0 0 0
106 1 -8.822296279311054 -3.9596638666368005 -1.0088859205764695 0 0 0
100 1 -6.600773696766641 -4.005534034198151 -0.16226050725412122 0 0 0
101 1 -5.1593173158436905 -3.853638584080935 -2.0924730465859955 0 0 0
10 1 -2.6367090520456813 -3.8921443524599013 -1.2774687874052848 0 0 0
109 1 -0.3732410037288876 -3.9826355863362437 -0.5317200425510382 0 0 0
108 1 -10.719370601933559 -1.8796466800130638 -0.32033505794874984 0 0 0
94 1 -13.020679970719126 -1.9872438364262504 -1.1909570787866066 0 0 0
91 1 -9.18674136288821 -1.9025883667072208 -2.2391856228055484 0 0 0
115 1 -0.06848952684367227 -11.25695385593621 -13.295893109503682 0 0 0
1068 1 -0.03308017231296567 -5.562351224373751 -6.684490704742011 0 0 0
747 1 -8.58701634648424 -1.0060041883881095 -14.242417333696006 0 0 1
750 1 -13.44596508592423 -14.02394197271877 -2.360457375040621 0 1 0
1091 1 -0.04510392280045217 -1.0401860405375523 -13.751731347635477 0 0 0
631 1 -2.6175864948890553 -14.1725560525591 -0.8809229436901482 0 1 0
408 1 -12.211228922204207 -12.298524641744216 2.0259735324912818 0 0 0
425 1 -13.376111157844198 -4.847101445124991 12.174009387573221 0 0 0
321 1 -5.301710531144909 -2.8693811560489983 11.581893901791975 0 0 0
342 1 -8.27127738331113 -12.205725973142698 0.9781614750069334 0 0 0
350 1 -9.835137851834537 -12.31981407261343 2.867683532907705 0 0 0
341 1 -5.881227986651151 -12.31020611983247 1.805308795023123 0 0 0
287 1 -3.6052391914179385 -12.419046464185392 2.6539901809762085 0 0 0
112 1 -2.1524090119985253 -12.28089129418088 0.5886945934095404 0 0 0
455 1 -12.57998170532606 -10.239621030497606 0.7812604102963938 0 0 0
393 1 -10.221513862695817 -10.208862594024167 1.7133093148797016 0 0 0
392 1 -7.872131532397881 -10.372515461854892 2.5009184036185346 0 0 0
384 1 -6.300151622815813 -10.166629219191659 0.5541608088104581 0 0 0
332 1 -3.959396019726574 -10.318707520326145 1.3425993217872492 0 0 0
495 1 -12.58266693629068 -0.09067402567288241 0.41801856131339576 0 0 0
1252 1 -1.6795773752165104 -10.368165159227173 2.3223510197578072 0 0 0
453 1 -11.978186855749263 -8.199138932809364 2.4008613226487476 0 0 0
446 1 -10.55503746546567 -8.07353523153261 0.3674690203612414 0 0 0
253 1 -12.469048993728947 -6.121710588249771 1.2736611959543982 0 0 0
444 1 -10.073630906662144 -6.227848622402274 2.0243808231888245 0 0 0
445 1 -8.213233202893903 -8.34667974152255 1.3098721936159432 0 0 0
443 1 -7.681154185745848 -6.336112988966709 2.811348406849561 0 0 0
438 1 -8.513784079446296 -6.000664071768034 0.11831360524221246 0 0 0
383 1 -5.81321944738928 -8.259778602435585 2.2449842033865473 0 0 0
377 1 -4.3716788287084665 -8.119124209472533 0.26546285907356015 0 0 0
436 1 -6.214987904443713 -6.143263097581952 0.958225828160165 0 0 0
375 1 -3.939202750737632 -6.149399918544168 1.8307692637039423 0 0 0
376 1 -2.0026948339865935 -8.160382614639538 1.014673556888928 0 0 0
374 1 -1.6650394257230818 -6.24459971151563 2.690952528267186 0 0 0
262 1 -7.086084777454169 -0.7617504294590276 12.435630210927947 0 0 0
246 1 -10.346613802424821 -3.9360699552376808 0.9171462353736821 0 0 0
251 1 -11.892835237454507 -4.228184070652988 2.8176138051712805 0 0 0
245 1 -8.033293029042802 -4.150104245860691 1.722744223285904 0 0 0
432 1 -4.289431266268236 -4.117463048504108 0.5534705380798268 0 0 0
435 1 -5.622999916388414 -4.265266186624501 2.560910595765044 0 0 0
431 1 -1.9146543613745717 -4.160122829423116 1.3789074634849836 0 0 0
367 1 -13.537190444811278 -8.718912322045664 11.711176721125078 0 0 0
274 1 -12.385452917660752 -2.1008609369693385 1.6778201361938798 0 0 0
272 1 -10.306424213262124 -0.11155541047053497 1.2498702936062678 0 0 0
271 1 -8.015621513490967 -0.06724735307204632 2.072620706039313 0 0 0
244 1 -9.983254860983042 -2.1861431913888847 2.5119741600538816 0 0 0
240 1 -8.355154620468092 -2.0111628623000435 0.6204304828511571 0 0 0
239 1 -6.02846144939699 -2.17060120983699 1.3280924064090307 0 0 0
430 1 -3.7107934200328057 -2.253859799463857 2.1559677513542397 0 0 0
1269 1 -0.03932060952550742 -6.2339426490743355 0.6459003060460127 0 0 0
236 1 -4.130039560494579 -0.11946469512742297 1.0709734605112882 0 0 0
428 1 -2.2767032182567277 -2.020285411003524 0.3571707522826806 0 0 0
323 1 -2.3438492225988146 -1.0605588490834226 13.828096412889742 0 0 0
289 1 -0.12747750101003064 -10.843267130449721 7.769300389471518 0 0 0
358 1 -11.341307382707472 -12.322777241674952 4.710416226767492 0 0 0
349 1 -7.376349299958659 -12.473884153937032 3.667529587263587 0 0 0
357 1 -9.053793972074331 -12.44857575045377 5.56927345309321 0 0 0
339 1 -5.161825956560602 -12.563595484682413 4.435246629175854 0 0 0
291 1 -1.3874290130754883 -12.455785428406351 3.4533208470454753 0 0 0
298 1 -2.8076140347039082 -12.669393606490857 5.366498259921006 0 0 0
422 1 -13.273724987125046 -10.468099975556957 5.617253334276363 0 0 0
403 1 -11.834153346573839 -10.24417418949342 3.5058461193659447 0 0 0
348 1 -9.439583528754234 -10.377265301399408 4.364415831354776 0 0 0
347 1 -6.959320294883115 -10.56135425861049 5.200870636655242 0 0 0
340 1 -5.336426068359877 -10.391548755309524 3.3181920568691616 0 0 0
319 1 -3.155947279784158 -10.500023103258666 4.326789032188408 0 0 0
1266 1 -0.8162379868139542 -10.579943081741158 4.934886109560672 0 0 0
402 1 -11.31641307383985 -8.400166291627928 5.172430484727709 0 0 0
451 1 -11.598569819836527 -6.326109072873485 4.021175822176094 0 0 0
390 1 -7.400332540357727 -8.428295407078913 4.03150900148912 0 0 0
391 1 -9.603969177397346 -8.178283060246969 3.3001721709585787 0 0 0
389 1 -9.282206870813676 -6.365493397648969 4.820372619097785 0 0 0
338 1 -4.94456901800185 -8.552005623682675 4.949072937036796 0 0 0
381 1 -5.364720772467763 -6.420803654687416 3.8243411947421464 0 0 0
382 1 -3.2936117231791417 -8.223914952391173 3.0246650854884827 0 0 0
318 1 -1.1111497895808462 -8.403020497133168 3.9577428029880792 0 0 0
380 1 -3.0476895579546124 -6.37845598098892 4.65206729283706 0 0 0
315 1 -0.7624271908312217 -6.512100471960852 5.417680607635649 0 0 0
1264 1 -0.1780559274644613 -10.2517717626061 0.3620544170004738 0 0 0
450 1 -11.111016565750502 -4.321492494725968 5.461651703792143 0 0 0
442 1 -9.557141866361853 -4.278596015612672 3.6469517258969404 0 0 0
441 1 -7.182828264852436 -4.45071377454809 4.462694980439892 0 0 0
379 1 -4.894628106006447 -4.4228352718293635 5.427193085896885 0 0 0
373 1 -3.4486318675936865 -4.381077013854528 3.4230823203846015 0 0 0
1270 1 -1.074183643677035 -4.41231494124424 4.2149974383723325 0 0 0
1840 1 -13.470687007521228 -0.19736874813005834 5.123750909378199 1 0 0
249 1 -11.463624593342818 -2.2513868097638827 4.386732065008793 0 0 0
273 1 -11.991976649405936 -0.17435907985422716 3.2087866509744565 0 0 0
242 1 -9.520914314507827 -0.2851456361632323 3.9258971989155818 0 0 0
241 1 -7.101655873862106 -0.35155066534831825 4.877885195443582 0 0 0
243 1 -7.585439360805874 -2.17870618846648 3.236933776375949 0 0 0
440 1 -9.113168943343666 -2.280289069602727 5.260285777559947 0 0 0
238 1 -5.617442066121481 -0.2733187622298914 2.903095271028125 0 0 0
434 1 -5.289026724474056 -2.371063003093319 4.055297578057061 0 0 0
237 1 -3.249434031297241 -0.181757357748058 3.7800396166620907 0 0 0
429 1 -1.4184859143357453 -2.242915271147366 3.0466403621487963 0 0 0
433 1 -2.9654997058528956 -2.3495391539315182 4.816330849707736 0 0 0
269 1 -0.9597239263832726 -0.23879926836633025 4.488264963978228 0 0 0
366 1 -12.939044157279007 -12.544835193627948 6.682455108998113 0 0 0
365 1 -10.554780275197404 -12.758241671464729 7.487336759984977 0 0 0
297 1 -8.242711450874005 -12.683548068711145 8.391517475892087 0 0 0
302 1 -6.771270202196801 -12.572995789784684 6.465569029909261 0 0 0
304 1 -4.370678688463068 -12.709889781233136 7.318641973749209 0 0 0
883 1 -0.4436564114853532 -12.574117261550752 6.232264178532159 0 1 0
296 1 -2.026762182088852 -12.804550115829777 8.174572834120369 0 0 0
364 1 -12.345669590216817 -10.842233227113246 8.439257806296027 0 0 0
356 1 -11.025986019313079 -10.533863727697545 6.373475895209527 0 0 0
354 1 -10.439584767203261 -8.569371170812499 7.952358741945375 0 0 0
355 1 -8.576714061859814 -10.530915700705306 7.06618232396389 0 0 0
290 1 -4.738481893406096 -10.628775628996603 6.117628424413592 0 0 0
301 1 -6.424393773688267 -10.627182147461943 8.071780407762308 0 0 0
346 1 -6.5098835943653945 -8.52207337225158 6.730304332172096 0 0 0
286 1 -2.3929160445824653 -10.646323668744392 6.791812894337504 0 0 0
327 1 -0.7151532684382271 -0.8997572446117719 11.966897121731055 0 0 0
421 1 -12.940047524955242 -8.609556819225078 7.056532737475447 0 0 0
460 1 -13.091085748936568 -6.542429823677035 5.8986410873964665 0 0 0
400 1 -10.8314612540546 -6.4213607395210435 6.773194362681469 0 0 0
388 1 -6.8994123744122895 -6.4544392850746535 5.663943210209876 0 0 0
401 1 -8.957564641640337 -8.448395454204764 6.008020575647105 0 0 0
399 1 -8.464280522233217 -6.555278384428446 7.497528085557622 0 0 0
345 1 -4.165015604595945 -8.645274783472367 7.636961100465122 0 0 0
336 1 -4.635987044867658 -6.616351146059198 6.609581333903407 0 0 0
344 1 -6.1341541625493345 -6.786883307927192 8.349792927508812 0 0 0
337 1 -2.6440098698587793 -8.489461968007465 5.841223133306681 0 0 0
1256 1 -0.2703396712688946 -8.594122913847833 6.617139367243084 0 0 0
335 1 -2.2469321182314435 -6.572902093276249 7.341402288498852 0 0 0
458 1 -12.560436326278484 -4.512861062480484 7.4472432244852484 0 0 0
397 1 -10.30057339401636 -4.4979691324651885 8.313411636991841 0 0 0
449 1 -8.786404517652837 -4.48878027037779 6.314014338763712 0 0 0
387 1 -6.4148386856813975 -4.535443147266307 7.38609624697926 0 0 0
386 1 -4.07377996194899 -4.5822892123172885 8.10000913309662 0 0 0
1378 1 -0.17368547983213745 -4.5098008608775295 7.052507673005021 0 0 0
378 1 -2.560643276090687 -4.366460400320518 6.141782173904932 0 0 0
248 1 -11.034961968283353 -0.27548281245294604 5.862646780409886 0 0 0
448 1 -10.707316897389806 -2.3945466309176613 7.012564966545334 0 0 0
256 1 -12.973619243308564 -2.449528695659703 6.347647429907337 0 0 0
255 1 -12.579468574829555 -0.5396922329861482 7.851593433143513 0 0 0
254 1 -10.124301716042202 -0.47941413010519973 8.677221657164178 0 0 0
447 1 -8.173135407747136 -2.5302899764426066 7.897241390911699 0 0 0
247 1 -8.605881051627735 -0.5040085356872002 6.779629513752379 0 0 0
439 1 -6.744363201714313 -2.4829823370957946 6.015045688731309 0 0 0
267 1 -4.861372382709748 -0.4452807500230822 5.610396071677254 0 0 0
328 1 -4.448354227897536 -2.4426972758044396 6.989586464251957 0 0 0
265 1 -6.361274652859712 -0.5055449571862933 7.519948497528283 0 0 0
266 1 -3.96464726343069 -0.4917866134076636 8.457479125160194 0 0 0
331 1 -0.6530607862601094 -2.4896196543888944 5.8199892231202845 0 0 0
329 1 -2.1564153423803223 -2.4462108663316915 7.781156681047143 0 0 0
268 1 -2.5263749889229796 -0.5050916604701055 6.42907719356668 0 0 0
1393 1 -0.2815082453710289 -0.5439716874194893 7.426689886268093 0 0 0
371 1 -12.08069298526429 -12.86827179006493 9.431009758845331 0 0 0
322 1 -4.76686954242922 -0.8736899943040193 13.071158740994836 0 0 0
776 1 -9.764983244778847 -12.856085592305565 10.338129691620864 0 1 0
841 1 -7.450599908623104 -12.957246072704555 11.054426188886513 0 1 0
280 1 -5.961232394384092 -12.81738036889557 9.110707136772483 0 0 0
860 1 -3.58244377120406 -12.917766301585313 10.107344514466082 0 1 0
929 1 -1.32928836743538 -12.93035310754464 10.918813186934123 0 1 0
370 1 -11.642140165248097 -10.855047765706322 11.104793079657028 0 0 0
427 1 -11.999871004693441 -8.790505061441285 9.852067121372652 0 0 0
363 1 -10.020217461327773 -10.790933146606154 9.059764608126443 0 0 0
420 1 -8.113795279079445 -8.659785451031988 8.775979065963007 0 0 0
311 1 -7.794239400627584 -10.810048762543925 9.979117483396642 0 0 0
362 1 -9.66896619135376 -8.873754350147589 10.572952970171798 0 0 0
279 1 -3.8774981761984613 -10.713318059803516 8.816599965677277 0 0 0
308 1 -5.405629400897682 -10.89938139012283 10.837962023657745 0 0 0
361 1 -5.710596301468194 -8.7210865443973 9.523628894009406 0 0 0
288 1 -1.927900266676236 -8.695344572601304 8.501438094644833 0 0 0
294 1 -3.3340911295958726 -8.735661708805676 10.42302179802946 0 0 0
276 1 -1.5750033606966554 -10.74144147003791 9.678586424488941 0 0 0
293 1 -1.0824130506789231 -8.861836385248345 11.250723663934327 0 0 0
419 1 -12.332452400338845 -6.650849503227682 8.742152088287106 0 0 0
426 1 -11.517941347599816 -6.855642149434415 11.464092649030142 0 0 0
418 1 -9.969883509813947 -6.751034994480252 9.42145266279572 0 0 0
352 1 -7.633663786020219 -6.902448825523846 10.354643349229718 0 0 0
343 1 -3.7507331023077644 -6.784255641728344 9.223683246393037 0 0 0
351 1 -5.372054208890477 -6.849614794311571 11.194042655692005 0 0 0
465 1 -1.4756808220050583 -6.782323101821211 10.077787075082242 0 0 0
417 1 -11.837189472559976 -4.790135280173141 10.226081237000301 0 0 0
396 1 -8.026370842490547 -4.720284789403957 9.206580794023512 0 0 0
414 1 -9.542256799419238 -4.866587903766403 11.094486336567556 0 0 0
410 1 -5.662583098387711 -4.698750966295602 9.915464458812366 0 0 0
411 1 -3.373317833049583 -4.911976557227407 10.773135000027061 0 0 0
415 1 -1.8069524010862086 -4.7056316944680745 8.808441219248913 0 0 0
457 1 -12.142627038938352 -2.723071254415471 9.16627350450738 0 0 0
258 1 -11.475982908618915 -0.6140403620354675 10.573346391795717 0 0 0
320 1 -7.558684879645833 -2.778024122913976 10.843506332933956 0 0 0
456 1 -9.783719419020953 -2.6708960478186157 9.935996099174872 0 0 0
263 1 -7.842320532861924 -0.5675458737471129 9.511196791256804 0 0 0
325 1 -3.602791226541763 -2.555108801606453 9.680716360518321 0 0 0
324 1 -5.923394694210424 -2.5616258144200934 8.861993038750182 0 0 0
264 1 -5.682282689883766 -0.7329937113796152 10.400429499231237 0 0 0
416 1 -1.3350962252681935 -2.8318970148285842 10.443551745577658 0 0 0
326 1 -3.2360454128312277 -0.8329951901662866 11.170918938754621 0 0 0
330 1 -1.5969821149985393 -0.5652899642417601 9.374196448124785 0 0 0
129 1 -12.738980497622451 -13.073773247202169 14.079802854508106 0 0 -1
1384 1 -11.303658943393902 -12.913398618487951 12.146260683263613 1 0 0