LAMMPS data file via write_data, version 29 Sep 2021, timestep = 0

1859 atoms
3 atom types

-13.835857902761358 13.835857902761358 xlo xhi
-14.18688267312382 14.18688267312382 ylo yhi
-13.94686377121284 13.94686377121284 zlo zhi

Masses

1 55.847
2 1.008
3 1.008

Atoms # atomic

52 1 -12.81950026737737 -12.9547664356977 -12.402915851643323 0 0 0
49 1 -10.84631038764211 -12.785353990149233 -11.154919826906855 0 0 0
23 1 -10.390588588655351 -11.885434551732093 -13.32887275886782 0 0 0
60 1 -8.377633514837235 -11.677572555850043 -11.866558514484868 0 0 0
54 1 -8.97962369006316 -14.046213033728773 -11.904218032301292 0 0 0
69 1 -6.433759017044651 -13.109383518148938 -12.702056618510186 0 0 0
427 1 -3.9806949194604577 -11.903391505725676 -13.71633445152376 0 0 1
68 1 -4.309147931343013 -12.570114434095958 -11.260874206574496 0 0 0
84 1 -1.9048185810238412 -11.624609269281631 -12.15356903258919 0 0 0
125 1 -0.7078001957319415 -13.904326240004687 -10.870180674212548 0 0 0
196 1 -4.008684984145098 -2.1869794680672126 -2.7745775189049784 0 0 0
2 1 -6.555111057638619 -1.1649542473512682 -2.3209980679068867 0 0 0
21 1 -12.126895868898497 -10.604236159828536 -12.403763345764888 0 0 0
58 1 -9.66171931156292 -9.472133764529117 -13.188087557581824 0 0 0
59 1 -7.630886536132534 -9.211516195746979 -11.761323879127136 0 0 0
53 1 -10.127749872289227 -10.285781086863498 -10.974032942956148 0 0 0
293 1 -1.967732491282435 -9.016967435098538 -0.27208570041263336 0 0 0
29 1 -5.722038320368014 -10.664980223513215 -12.686758171190888 0 0 0
30 1 -3.7154662928408744 -10.36462209989215 -11.099707530082327 0 0 0
382 1 -3.1889751392947314 -9.610883117535042 -13.560486327497069 0 0 1
38 1 -1.1490584850104764 -9.386499094533878 -11.850565157193653 0 0 0
1043 1 -13.454389909163162 -8.490898415785207 -13.752899997231994 1 0 0
26 1 -11.451817904827434 -8.18711759915415 -12.188994675865848 0 0 0
1010 1 -12.635338817223966 -6.002625475833911 -13.556279065507958 1 0 0
232 1 -13.401501149522627 -6.985154749309913 -11.239396428009073 0 0 0
345 1 -10.658154775503501 -5.76853641457774 -12.096416936024003 0 0 1
368 1 -8.807665013827382 -7.012470483250349 -13.016099929828046 0 0 1
57 1 -9.414726576651553 -7.953141707267209 -10.724512691733086 0 0 0
222 1 -8.656855948569131 -5.532914798389726 -10.493649031345285 0 0 0
27 1 -6.803956458499553 -6.760814794116963 -11.395172662486177 0 0 0
36 1 -5.073813023071663 -8.279796922994398 -12.57706427532392 0 0 0
37 1 -4.3015559626717295 -5.925229953607504 -12.36475776826155 0 0 0
377 1 -6.264907140193125 -6.018673155399551 -13.879169912787484 0 0 1
381 1 -2.3777443064134562 -7.240248934381605 -13.401275437235567 0 0 1
43 1 -0.5598208471839587 -6.971984515647548 -11.831836849009456 0 0 0
75 1 -3.2106467829682312 -8.070251377398328 -11.083269119261423 0 0 0
42 1 -2.290816149345444 -5.614497271982156 -10.857753579305939 0 0 0
225 1 -11.873912757356056 -3.6195803986255672 -13.39250006981653 0 0 0
233 1 -12.567755247251098 -4.605261616373864 -11.218614221074334 0 0 0
226 1 -9.949067814185804 -3.3920170050286327 -11.825970087553738 0 0 0
34 1 -8.119552110386817 -4.697673891135386 -12.923008054593714 0 0 0
87 1 -7.8662649819905734 -3.2139079161337456 -10.428126360764944 0 0 0
35 1 -6.095120126754288 -4.476104575791505 -11.346001080541264 0 0 0
349 1 -5.574661705144742 -3.4919033881903836 -13.652358556821087 0 0 1
46 1 -3.5867079419493084 -3.497725298758377 -12.23038877704714 0 0 0
379 1 -1.8027427541519145 -4.7997075054618925 -13.326651880885457 0 0 1
983 1 -1.4721847280347902 -3.237909538017421 -10.626870701395244 0 0 0
227 1 -11.316655904015036 -1.2044106101687362 -13.44389191398937 0 0 0
231 1 -11.82887490490501 -2.11822703045514 -11.015377382343424 0 0 0
238 1 -9.297434100606816 -1.05582449648597 -12.035330133670488 0 0 0
343 1 -7.347274949458479 -2.376338070850684 -12.846888189224835 0 0 1
521 1 -7.262915344896014 -0.8300714875797741 -10.330527065687097 0 0 0
41 1 -5.452861484873683 -2.243792354994593 -11.120109469776981 0 0 0
348 1 -4.836804648129398 -1.2474990598471472 -13.478547144403006 0 0 1
352 1 -2.8825634502585356 -1.1170257217411237 -12.048915015123486 0 0 1
350 1 -1.228344497000954 -2.4611787935882 -13.062207861350272 0 0 1
44 1 -0.8946000944902313 -0.956405097146515 -10.581472194040494 0 0 0
31 1 -0.08311527130687502 -13.080287924641976 -13.162547870921003 0 0 0
638 1 -11.456890476585016 -13.598561477095426 -8.845483231502996 0 1 0
582 1 -13.481373540390452 -13.868903889078153 -10.253843357848035 0 1 0
101 1 -13.557447807993139 -12.312289174855003 -7.795473735373948 0 0 0
50 1 -12.691002622558733 -11.515256546188152 -10.118109658217637 0 0 0
55 1 -6.875359661629641 -13.832271570711805 -10.465908277812089 0 0 0
107 1 -8.851160336448578 -12.544976380434322 -9.61559818970079 0 0 0
639 1 -9.479863689774113 -13.248405373441518 -7.302000371095183 0 1 0
108 1 -6.814915602513648 -12.152261660705825 -8.059866049888956 0 0 0
115 1 -4.947531898181392 -13.667894495071469 -8.987808452742392 0 0 0
113 1 -6.386912406535707 -11.442447594692352 -10.432067132238139 0 0 0
123 1 -2.397293234280907 -12.538007752806443 -9.766603218867282 0 0 0
116 1 -2.982223301872688 -13.341163944368747 -7.543248849764989 0 0 0
124 1 -0.3795015929327956 -12.368435701992105 -8.320496530782576 0 0 0
51 1 -12.012390969786887 -9.170975849607665 -10.01147568970699 0 0 0
100 1 -12.703294870811835 -10.061144329135464 -7.742850820603722 0 0 0
105 1 -10.719297454801824 -11.20365716437238 -8.701869978138284 0 0 0
111 1 -8.169973821284056 -10.188741761864621 -9.379132617602062 0 0 0
104 1 -10.039595987546397 -8.747649740379071 -8.520012650962375 0 0 0
106 1 -8.758811707855344 -10.96143549123522 -7.160199178174649 0 0 0
114 1 -4.278337309865993 -11.23406371373062 -8.776381320773977 0 0 0
121 1 -5.609459017886119 -9.011185714796573 -10.192376196353951 0 0 0
112 1 -6.067308565767747 -9.916205298412798 -7.950150821178602 0 0 0
122 1 -3.509874652099324 -8.863962038049177 -8.6826819645566 0 0 0
80 1 -1.6326985821818845 -10.152566698538857 -9.622785057020673 0 0 0
161 1 -2.0946916057028737 -11.007987394925916 -7.387452711727457 0 0 0
167 1 -1.4447912531576215 -8.652743653490177 -7.229827725522602 0 0 0
56 1 -11.371393951926173 -6.7336412288982315 -9.898501255994454 0 0 0
103 1 -11.81926907062304 -7.522175318570113 -7.530395654722502 0 0 0
66 1 -12.302848418706525 -0.10525427495984374 -4.358836590969695 0 0 0
119 1 -9.336174269859232 -6.532182386902634 -8.383823821341611 0 0 0
72 1 -7.396961585978359 -7.656806795743287 -9.225657546435905 0 0 0
118 1 -7.150312560319854 -6.346854222147519 -6.6796754976197406 0 0 0
73 1 -4.829131476562248 -6.702313557599446 -9.949511529443972 0 0 0
120 1 -5.2403726356209805 -7.543983473989073 -7.635006657993731 0 0 0
74 1 -2.799420033693311 -6.462866377778075 -8.586460816243275 0 0 0
91 1 -0.8769933077732208 -7.864769735071599 -9.507675813877693 0 0 0
214 1 -13.081433054432846 -5.352316407278817 -8.954870304917701 0 0 0
206 1 -11.070004381926875 -5.144803534197216 -7.345668775829483 0 0 0
71 1 -10.670442550156904 -4.394677712492051 -9.707353156459959 0 0 0
209 1 -12.422766104013295 -2.8850000240007265 -8.811251100506897 0 0 0
117 1 -8.496601960624911 -4.217068421008939 -8.068407875773547 0 0 0
109 1 -6.6960848360144 -5.427541740033773 -8.890183231396655 0 0 0
128 1 -4.595515263342078 -5.287882337639193 -7.465206630912659 0 0 0
88 1 -5.758727120770002 -2.9489587648062834 -8.801080271878398 0 0 0
89 1 -4.116974194180251 -4.456267473035124 -9.789935023684475 0 0 0
134 1 -3.825106594247421 -2.8526190377185063 -7.436648621607988 0 0 0
351 1 -0.37347246918783306 -0.03686778071661756 -12.943570281685734 0 0 1
90 1 -2.0315339517217765 -4.144874626163265 -8.395539849998055 0 0 0
203 1 -10.32597851941922 -2.860403304083743 -7.368774608222756 0 0 0
235 1 -11.675696277465473 -0.6263186731542163 -8.661770377520252 0 0 0
16 1 -9.11200905664587 -2.27244956227735 -1.522342580749008 0 0 0
237 1 -9.788606972615256 -2.1393519302515536 -9.596780208117842 0 0 0
201 1 -7.715623642932125 -1.7277378058588262 -8.015650908606656 0 0 0
204 1 -9.670534197184871 -0.40428436747921737 -7.340998030311571 0 0 0
132 1 -5.1917894291398845 -0.6418233703041416 -8.868104532359503 0 0 0
94 1 -3.3807149661611575 -2.0627051669419085 -9.80264245221973 0 0 0
95 1 -1.3594755720253229 -1.798613780032431 -8.223349719173457 0 0 0
133 1 -3.106602734951098 -0.47951239689563074 -7.313525581870545 0 0 0
102 1 -11.403958656610465 -12.09058893560652 -6.460092019724151 0 0 0
654 1 -12.079458767156936 -12.9682905324454 -4.336542216807322 0 1 0
140 1 -9.363039978236877 -11.998674347723467 -5.077524241032469 0 0 0
145 1 -7.426100364711035 -13.15487500772631 -5.812473533418176 0 0 0
153 1 -4.846229212295787 -12.053479764542388 -6.510144880092483 0 0 0
146 1 -5.449327094178509 -12.795031970917702 -4.36863514314642 0 0 0
378 1 -6.8791129915751 -8.37513529128777 -13.932054263873397 0 0 1
152 1 -2.6797105660321545 -11.892909823970694 -5.149876417236033 0 0 0
154 1 -0.7861541549027109 -13.130886708645306 -6.083952540182472 0 0 0
138 1 -11.392685333426144 -10.60274338022043 -4.095406081453129 0 0 0
139 1 -13.291118089440985 -10.79727374477496 -5.594434951041189 0 0 0
143 1 -10.599366276321051 -9.6788107075594 -6.277930133870123 0 0 0
144 1 -8.665778578503513 -9.453111890566722 -4.834116945820313 0 0 0
149 1 -7.731257067524233 -8.699319856700239 -6.862993931616426 0 0 0
151 1 -6.648270744936684 -10.674504111203822 -5.523579370346351 0 0 0
179 1 -4.3967373816373865 -10.518187976905967 -3.977101644353162 0 0 0
159 1 -3.9239946989156778 -9.795133272131379 -6.430340379045676 0 0 0
1 1 -4.668146244163307 -0.9028528427141715 -0.9332421293555644 0 0 0
160 1 -1.6834853571783963 -9.420841438967381 -4.918454384953874 0 0 0
141 1 -12.647242320146406 -8.519868693239626 -5.3358390344166775 0 0 0
142 1 -10.72817667657957 -8.34665298086589 -3.847589383888714 0 0 0
212 1 -11.787703411771602 -6.115659855425545 -5.212953599188248 0 0 0
79 1 -13.10634516416062 -1.1008845754533496 -2.2466186347887422 0 0 0
147 1 -9.772104570260847 -7.343129787113852 -5.932169743438093 0 0 0
148 1 -7.685401238451234 -7.127122416454569 -4.587400494883303 0 0 0
67 1 -9.777613190979151 -6.128676632682923 -3.687819837562902 0 0 0
156 1 -5.722096073667249 -8.518730104770555 -5.346334682512545 0 0 0
163 1 -4.988033666756587 -6.139091036001089 -5.188634977618257 0 0 0
157 1 -3.5138168963905922 -8.304851537046932 -3.9375147398721833 0 0 0
130 1 -0.570946940537878 -6.339071412686802 -7.112996916470818 0 0 0
165 1 -3.07689865809753 -7.444051302550012 -6.166969641329157 0 0 0
158 1 -0.9825808822047062 -7.160767410413035 -4.70524052936841 0 0 0
198 1 -2.8546841217122854 -5.934436771972605 -3.6053528135799553 0 0 0
1109 1 -13.03241416894798 -3.914308135830481 -6.643024161291681 1 0 0
76 1 -11.07328352675155 -3.7696021129481903 -5.237670608148079 0 0 0
197 1 -1.7919364486775287 -2.039763459361229 -1.079967514554843 0 0 0
110 1 -9.04540448348228 -5.051816667368213 -5.836461790149302 0 0 0
4 1 -9.174101195307422 -3.5238060263805533 -3.791530441958166 0 0 0
155 1 -6.901831522190496 -4.789869720332549 -4.418864114406189 0 0 0
126 1 -6.441695038777205 -3.9581222130812215 -6.628360701389421 0 0 0
127 1 -4.165486679840955 -3.717548382967612 -5.188137517755427 0 0 0
166 1 -0.26800872750693117 -4.870183915040188 -4.601924709904658 0 0 0
129 1 -2.3066506263861815 -5.029915962729582 -6.124257736586763 0 0 0
164 1 -2.0867340123055858 -3.640940481384339 -3.505248850502335 0 0 0
20 1 -13.779727971862616 -3.409283694881479 -2.273744341306694 0 0 0
208 1 -12.324114220424871 -1.5753382060374843 -6.535998269884348 0 0 0
78 1 -13.071242368872944 -2.497261927740759 -4.426391131954244 0 0 0
64 1 -10.309009863306708 -1.4993741583355096 -5.207470145158231 0 0 0
62 1 -7.533196379361899 -0.22909907644514327 -5.674783457125777 0 0 0
202 1 -8.26897294316943 -2.5724126564853087 -5.886398048146972 0 0 0
65 1 -8.466509295345066 -1.2801424899839269 -3.623425576756752 0 0 0
200 1 -5.607393420374967 -1.452217578002072 -6.432917413559124 0 0 0
63 1 -6.199881904281866 -2.484958003432121 -4.2789195312861885 0 0 0
168 1 -3.546317468071978 -1.3526245162881043 -4.9731921507308545 0 0 0
169 1 -1.3962112483261535 -1.142858600939304 -3.4529722949058907 0 0 0
170 1 -1.7390869746189583 -2.71658829253688 -5.877879465707574 0 0 0
1047 1 -0.890170680425955 -0.2867261122048017 -5.797169563264312 0 0 0
172 1 -12.23369386188531 -11.65799928628023 -1.958827688401362 0 0 0
271 1 -10.82042038647958 -13.695223080557207 -0.7797879205884861 0 0 0
680 1 -12.823901750259566 -13.979131593721918 -2.086651496162313 0 1 0
180 1 -7.597578546428645 -11.602908822713522 -3.51958894004785 0 0 0
174 1 -10.124371829071327 -12.920180203366243 -2.955082463032369 0 0 0
272 1 -8.307443088169919 -12.735531200752646 -1.3649834813175747 0 0 0
173 1 -10.219787689212442 -11.457051359322909 -0.3915050063099308 0 0 0
701 1 -6.381334663322287 -13.892849250491185 -2.437032720058701 0 1 0
181 1 -5.571263740800454 -11.581645109266681 -2.1989329123699957 0 0 0
10 1 -3.6052552166653395 -11.399679140553603 -0.8141185346564974 0 0 0
702 1 -4.53428934729248 -13.825326968415403 -0.8918593044649104 0 1 0
195 1 -0.3836477614170466 -11.769688560287287 -3.5242333895360005 0 0 0
188 1 -3.257853398984281 -12.677616732306834 -2.865796717697373 0 0 0
187 1 -1.0725563381642917 -12.697871824779913 -1.5705454073351781 0 0 0
176 1 -11.486475928749055 -9.382791281537072 -1.5841487293082537 0 0 0
96 1 -13.418240985273131 -9.500661995345764 -3.0893746585292217 0 0 0
178 1 -9.638233708170098 -10.482844481955407 -2.561454384276262 0 0 0
298 1 -9.4815782945164 -9.11863055666717 -0.2717448673561176 0 0 0
177 1 -7.595590145168719 -10.478974694411832 -1.2757932766389644 0 0 0
184 1 -6.451727337475184 -9.320604002837428 -3.2269917289982075 0 0 0
185 1 -4.254354068884236 -9.18791395303535 -1.751235762693348 0 0 0
186 1 -2.052009678219143 -10.500304423532128 -2.5368467867453006 0 0 0
99 1 -0.199667829196855 -5.45371472093019 -9.356420902366079 0 0 0
81 1 -12.739510136219234 -7.051613169114838 -2.9697699589644007 0 0 0
33 1 -13.355667497244063 -8.159037346605302 -0.8184879105329763 0 0 0
32 1 -10.897682192681843 -7.031406839005467 -1.5939125164182748 0 0 0
182 1 -8.654825629350485 -8.154708268640007 -2.429783406079107 0 0 0
299 1 -8.836427694652087 -6.777486044115833 -0.23619583417320378 0 0 0
18 1 -7.479092782045881 -5.839886579254465 -2.278023352511676 0 0 0
183 1 -6.814703369738895 -8.012717969988245 -1.1532265658561123 0 0 0
191 1 -5.438348822072644 -7.024930987724888 -2.8298601875457496 0 0 0
150 1 -1.2639184658536724 -8.10956552522343 -2.3958423203248014 0 0 0
193 1 -3.1768176155297123 -6.818768089460074 -1.2911837804571569 0 0 0
199 1 -0.5248083244211266 -5.677719284570131 -2.1491758962024274 0 0 0
77 1 -11.16371771090018 -2.4539089671189345 -3.0189463137984927 0 0 0
19 1 -12.678064439370328 -5.55634967462451 -0.780804924457847 0 0 0
945 1 -11.877699243198347 -4.762216224549945 -3.0238572706621767 1 0 0
265 1 -11.902333086066994 -3.152893220103058 -0.7936423998362265 0 0 0
263 1 -7.887189333503564 -4.428057025189242 -0.20499734267128922 0 0 0
83 1 -9.972651768662672 -4.671076133114102 -1.6031630601482298 0 0 0
3 1 -7.286833479248865 -3.5098468860824266 -2.441329573220525 0 0 0
190 1 -5.000557451124751 -5.453784145946823 -0.46897944265628055 0 0 0
189 1 -4.755824065893364 -4.5326904954144265 -3.0085671089916612 0 0 0
339 1 -5.413626424615369 -3.2775100590426423 -1.1545171555395566 0 0 0
8 1 -2.4096073533319693 -4.441630106131951 -1.3515367454720106 0 0 0
17 1 -11.290149885582297 -0.9004964907522535 -0.6380585663138785 0 0 0
1110 1 -13.721090184634672 -6.311778910372285 -6.728001286120915 1 0 0
264 1 -7.352532380163978 -2.037134509477136 -0.019595185230125267 0 0 0
82 1 -13.805695285905228 -4.890776695841348 -4.53780287447324 0 0 0
230 1 -13.629563894821802 -0.7960097059146722 -10.31177607476136 0 0 0
706 1 -1.404371810818601 -13.935202197224257 -3.9137363352992924 0 1 0
70 1 -2.6586330598833374 -14.019389757124877 -12.3470366201759 0 0 0
61 1 -5.380113667125144 -0.029061943128004586 -4.108650742726038 0 0 0
545 1 -10.44144241822786 -0.1442152775011749 -2.8433493337909397 0 0 0
229 1 -13.76925057422749 -7.81194099674478 -9.089313688980273 0 0 0
219 1 -13.80415774115538 -2.325273224214037 -12.719002206586152 0 0 0
675 1 -3.480815544467987 -14.08215286571471 -5.315662483380967 0 1 0
520 1 -6.737427202734836 -0.05170606263458133 -12.651704574183663 0 0 0
692 1 -8.26109517388458 -14.106386065682653 -3.7952804855125937 0 1 0
287 1 -10.854441270168016 -12.362105555038736 1.7220717139032047 0 0 0
833 1 -13.569667476512782 -13.45972645531086 2.543910922671895 0 1 0
171 1 -12.840030473149485 -12.567972131930295 0.3519542469101733 0 0 0
267 1 -8.954013891846479 -13.544436604816507 0.940757420327893 0 0 0
278 1 -8.858972883323968 -12.105024756818997 3.2808962359997587 0 0 0
268 1 -7.000830601135332 -13.366937747417564 2.384487303293529 0 0 0
281 1 -4.307577191241915 -12.249345171640678 1.506591938959616 0 0 0
359 1 -9.474385198128406 -2.5745419395402163 13.595132893808362 0 0 0
275 1 -0.5064974407542078 -13.516911860077004 1.8311560445675852 0 0 0
274 1 -2.421062398306912 -12.079252482111604 2.8044920165513005 0 0 0
269 1 -2.5333463972707264 -13.707625987691554 0.43059203874176966 0 0 0
953 1 -12.08832233433254 -10.198615163351558 0.5052222004854077 1 0 0
270 1 -12.88681285559936 -10.976285938077204 2.6557614395528013 0 0 0
295 1 -12.054192571096824 -8.724891920897658 2.681102989819461 0 0 0
289 1 -8.14430685789613 -11.412891198034366 0.9707404276287157 0 0 0
296 1 -10.127097665767247 -9.967861130192498 1.9617687083577504 0 0 0
290 1 -7.549154071351559 -8.913493777514198 1.0208836185744214 0 0 0
324 1 -8.178812902236473 -9.729132678257852 3.364940334549164 0 0 0
280 1 -6.238919798504008 -11.074330673819189 2.463654401721872 0 0 0
282 1 -3.588131579923772 -9.835585275639751 1.4530924394249656 0 0 0
326 1 -5.6223927725143685 -8.751237256672376 2.401540383962665 0 0 0
1216 1 -0.018345985678040577 -2.056476568249167 7.61136737703427 0 0 0
283 1 -1.4914258290135862 -11.330279720016838 0.383097031915165 0 0 0
318 1 -1.6740955781273392 -9.821484305669017 2.625440735173452 0 0 0
297 1 -11.425576475686663 -7.8045726472464825 0.5534879516869218 0 0 0
1201 1 -13.395131628333852 -6.524578029650062 1.3466992015529158 1 0 0
259 1 -11.485313011069968 -6.31314902642529 2.89872408633115 0 0 0
288 1 -9.478095893335663 -7.497272888021305 2.085874534584544 0 0 0
334 1 -7.471436060797766 -7.411333312493793 3.358114751904399 0 0 0
336 1 -6.644776833773375 -6.610386483790437 1.0315679585107436 0 0 0
327 1 -4.725980918795877 -6.300328836900567 2.416131147480762 0 0 0
292 1 -4.832519567300043 -7.979722521403398 0.1412574181576911 0 0 0
192 1 -0.9555627700500455 -6.664963983161357 0.11490525653913153 0 0 0
328 1 -2.9815418845607837 -7.579307061780042 1.4864150426131832 0 0 0
319 1 -0.9703895653450996 -7.468855970812172 2.6258005975672702 0 0 0
261 1 -10.716650356697807 -5.430997994840672 0.6700011272115649 0 0 0
946 1 -12.551956141197147 -4.095391555063715 1.5052998062974954 1 0 0
260 1 -10.501287361186534 -3.8999669631322416 2.908435609252056 0 0 0
335 1 -8.643090493575905 -5.218492254689808 2.0016450129156045 0 0 0
262 1 -9.85067660021828 -3.076604158229941 0.7462304387988112 0 0 0
337 1 -6.098658356671901 -4.150417143156728 1.3696233613903743 0 0 0
432 1 -4.2982415718886156 -3.9962701029097385 2.7105099771798926 0 0 0
365 1 -5.163588976556959 -2.8926244414773734 11.895088679438619 0 0 0
338 1 -2.594716102168352 -5.173762774010431 1.2014254195751857 0 0 0
329 1 -0.32983104386400086 -5.090656189192961 2.7735567628009967 0 0 0
430 1 -1.6421357468983295 -2.714080892682544 1.6045799007988766 0 0 0
294 1 -0.1896777464251631 -4.205549261439286 0.33706022737190544 0 0 0
1378 1 -11.851079387089223 -1.7609976883559693 1.5934514595542435 1 0 0
743 1 -4.454020941561025 -0.4671501749274718 11.954584225822916 0 0 0
340 1 -3.752898693408582 -3.0983245195093385 0.3067654046337278 0 0 0
254 1 -7.992790638994613 -2.8265206039536945 2.2938771825306574 0 0 0
248 1 -9.149215545817466 -0.652233042921111 0.8266043395657103 0 0 0
253 1 -7.250370789180654 -0.4844803018797528 2.3412214130952016 0 0 0
249 1 -9.858543036606125 -1.7006036328120278 3.03081324826325 0 0 0
747 1 -2.3871042180975657 -0.28376781048360655 13.487406821094819 0 0 0
252 1 -5.378108994196564 -1.8173358612340014 1.4386252419353927 0 0 0
431 1 -3.442163103461052 -1.6124139538882645 2.7180282768694184 0 0 0
429 1 -0.9715090029717359 -0.3996182813206044 1.6642673138767154 0 0 0
251 1 -2.904969201464974 -0.5368585387003311 0.45368633342621045 0 0 0
285 1 -13.369861400816522 -12.067893921394129 4.873477817213306 0 0 0
832 1 -11.553148465975289 -13.286777702297552 3.8878498385808093 0 1 0
320 1 -11.280207506175401 -11.741657486772613 6.285352383603321 0 0 0
347 1 -3.0593366881440787 -2.6296217370519486 13.207073290839332 0 0 0
277 1 -9.368417910474747 -13.189683010009562 5.427236934377234 0 0 0
312 1 -7.318990557332176 -12.961954518285191 6.840593546498155 0 0 0
314 1 -6.714064420112524 -12.03616763261941 4.663799563792399 0 0 0
273 1 -4.897231813275935 -13.250503689311692 3.670021359623682 0 0 0
305 1 -4.688788424656224 -11.742125979521518 6.047293552702914 0 0 0
306 1 -2.858942288677099 -13.079714772055862 4.915065965009646 0 0 0
308 1 -0.39937376645454314 -11.99110159059825 4.130382694135751 0 0 0
301 1 -0.939776897965027 -12.838083072547791 6.456003396037119 0 0 0
1187 1 -12.748783595897562 -9.633398831318846 4.93345706631591 1 0 0
286 1 -10.813431862614868 -10.882032925921115 4.087521967953752 0 0 0
321 1 -10.625846258919301 -9.458005319202051 6.512622018556208 0 0 0
322 1 -8.772698206819655 -10.785356827716997 5.549712111459652 0 0 0
332 1 -10.17695466800779 -8.53474940177631 4.199364408252411 0 0 0
316 1 -4.281113701469058 -10.95388485002453 3.7957027454144026 0 0 0
315 1 -6.065937409867889 -9.636717052311754 4.691398716421677 0 0 0
453 1 -4.047493436155971 -9.402531516843084 6.0031514101813634 0 0 0
307 1 -2.3096979259674857 -10.689848999786967 5.0054594503599645 0 0 0
1253 1 -0.36716287622014043 -10.43405080546132 6.507346170681906 0 0 0
331 1 -12.11078219960837 -7.255318519838699 4.989587771061519 0 0 0
933 1 -9.76179078057071 -0.10556654859474612 5.251206734880121 0 0 0
323 1 -8.135867465924026 -8.25671225658889 5.677916172556166 0 0 0
333 1 -9.270461391873884 -6.104167955860433 4.242467891019821 0 0 0
436 1 -7.178594915868481 -5.969819568866924 5.612475170291102 0 0 0
438 1 -9.989707323253763 -7.141169330137672 6.575286795384432 0 0 0
317 1 -3.541813708979914 -8.59089823798978 3.561447732424508 0 0 0
325 1 -5.388979991153668 -7.258646770328843 4.6367278587299054 0 0 0
443 1 -3.4394354788024266 -7.067949685690096 6.118714712412295 0 0 0
451 1 -1.6068313951848694 -8.381055455710964 4.919860336018566 0 0 0
441 1 -2.7938680049164546 -6.199061305459191 3.781145310454299 0 0 0
450 1 -0.9144445962592815 -6.082091281338231 5.108051155635657 0 0 0
258 1 -11.165134141320074 -4.866108504047858 5.186919873074043 0 0 0
1379 1 -13.328744324512366 -5.0030564264554815 3.6802731396814536 1 0 0
1335 1 -13.164566889006732 -3.6285718116637877 6.02573437702819 1 0 0
256 1 -8.475733886546909 -3.9045039747270973 4.3296302649363625 0 0 0
437 1 -9.17352885455718 -4.64561288841556 6.624271421342293 0 0 0
434 1 -6.64870335328838 -5.215446608730121 3.4709994537491653 0 0 0
442 1 -4.682380594391914 -4.874718327633943 4.895231285748874 0 0 0
435 1 -6.547492371627376 -3.5387124904179608 5.754041197541273 0 0 0
440 1 -2.134941153384915 -3.7446466746246934 3.853264431287325 0 0 0
1228 1 -0.16054333018050748 -3.6666368530948485 5.168883641434125 0 0 0
394 1 -2.6728180565179915 -4.66660518546931 6.222727825346507 0 0 0
1334 1 -12.375871949828323 -2.595702965012231 3.872679850524001 1 0 0
250 1 -11.836104677566807 -0.22784871167303855 3.875411841673479 0 0 0
242 1 -12.383883555712284 -1.1730447376762054 6.091335533831515 0 0 0
257 1 -10.449781345810036 -2.4233046687855424 5.245584014747614 0 0 0
244 1 -7.935252772265962 -1.354670849667004 4.410576811328841 0 0 0
245 1 -8.32618030526545 -2.29502947828618 6.607223285192916 0 0 0
1186 1 -13.803080415155984 -12.88096697766458 7.128945650127118 1 0 0
433 1 -5.983082505380229 -2.65450313727011 3.584365337712647 0 0 0
753 1 -3.2171754860417145 -0.17988227050494743 4.988547957520186 0 0 0
243 1 -5.1611125663484145 -0.33844374733456384 3.6511080175045407 0 0 0
384 1 -3.9861431250944683 -2.4611650407006724 5.101283503703478 0 0 0
385 1 -5.971600890362306 -1.1747126603462306 5.750990126136152 0 0 0
363 1 -2.490107483294956 -1.7409592024828235 10.988958459438955 0 0 0
383 1 -1.4181284092912687 -1.374553047471215 3.9729738031505057 0 0 0
393 1 -2.0136833882691008 -2.2659547191336973 6.2781218902981415 0 0 0
355 1 -6.314817314933776 -0.6868399987541469 10.50861328513076 0 0 0
309 1 -11.803388212498557 -12.843728955417088 8.531608440265437 0 0 0
310 1 -10.00363925704301 -14.076692913223573 7.695489116892553 0 0 0
311 1 -9.25049733386599 -11.663759901416174 7.765826802130476 0 0 0
302 1 -8.01253433319857 -13.852688022204164 9.021766391382595 0 0 0
459 1 -9.86515628207002 -12.69805258035352 9.960679847565508 0 0 0
300 1 -3.496885629147963 -14.066895160397852 7.253792824183581 0 0 0
303 1 -5.3943831330689065 -12.791533896329668 8.358870937420228 0 0 0
464 1 -3.350843236411512 -12.577862484392053 9.62212810056199 0 0 0
470 1 -1.5160715844899304 -13.722094606123008 8.698835085657045 0 0 0
462 1 -2.7229769240516966 -11.612744249651104 7.26762129018535 0 0 0
1393 1 -13.177678948647326 -10.460263578629243 7.2248703986412295 1 0 0
449 1 -11.246607539775958 -10.359691928585281 8.616336978110809 0 0 0
1349 1 -13.060116568179268 -9.06992371733242 9.729659122999895 1 0 0
457 1 -7.320694901837253 -11.474998287818678 9.189024182376482 0 0 0
447 1 -8.570105943986817 -9.236038662713154 7.8536213925625695 0 0 0
458 1 -9.20184277260027 -10.147082185776938 10.092783539331482 0 0 0
313 1 -6.686510843364642 -10.60407287149472 6.886583628570239 0 0 0
455 1 -4.695167205773455 -10.330874009736952 8.279213111985342 0 0 0
456 1 -6.555160561563679 -9.095661325602904 9.192738886620717 0 0 0
469 1 -0.8842706683043478 -11.362857624848768 8.8151707676395 0 0 0
1234 1 -0.15800496004173858 -8.976931720340335 8.818851255293112 0 0 0
461 1 -2.073466794054614 -9.166583598563513 7.3322406278949614 0 0 0
463 1 -2.743786084117536 -10.13496757298059 9.594030320029319 0 0 0
1392 1 -12.578628649583528 -8.163619421752912 7.275937097336808 1 0 0
1348 1 -12.357991896861874 -6.585594026478721 9.617947859129654 1 0 0
448 1 -10.475237724613544 -8.073735615482015 8.791869670522903 0 0 0
446 1 -7.888965704277224 -6.93589144848445 7.74857572096683 0 0 0
400 1 -8.412536379178382 -7.7968378365689395 10.150550989757555 0 0 0
445 1 -5.934830909079618 -8.245011834568723 6.896620736012551 0 0 0
444 1 -5.274013531173406 -5.934767317367108 7.034919094147561 0 0 0
454 1 -3.924200163539931 -7.926995770063605 8.328104519714174 0 0 0
398 1 -5.770890779074673 -6.7482423126561075 9.382114397905735 0 0 0
452 1 -1.4019656718723947 -6.822622975366322 7.518277640524527 0 0 0
406 1 -2.0452534840109546 -7.838214567177738 9.727310425918084 0 0 0
439 1 -11.728482666610711 -5.79632850602523 7.380781843178159 0 0 0
11 1 -6.309569319091198 -12.552065620418603 0.052932494927961926 0 0 0
247 1 -11.05981645263608 -3.3401987281658663 7.379988323939642 0 0 0
391 1 -11.48295359906843 -4.296714195781396 9.755165270319988 0 0 0
390 1 -9.650867967368866 -5.553253212589716 8.828741153598028 0 0 0
388 1 -7.226030880915617 -4.597472972269571 7.925579611352422 0 0 0
389 1 -9.103134729726815 -3.152603639477457 8.850217625151004 0 0 0
399 1 -7.729437945640796 -5.4165405193107325 10.208020899408371 0 0 0
386 1 -4.586591319828999 -3.399639638787919 7.202300334739899 0 0 0
397 1 -5.292404943087783 -4.24496014948296 9.40911044434172 0 0 0
396 1 -3.136264590736163 -5.544614537517571 8.363331922216009 0 0 0
403 1 -0.5460870018380373 -4.463972819135776 7.601061467359848 0 0 0
395 1 -2.7195962001139495 -3.2036930569699216 8.676707977639438 0 0 0
405 1 -1.2885023841311956 -5.279358745827253 9.865058891298691 0 0 0
362 1 -0.5689635252290053 -2.9465226671074607 9.986281451444224 0 0 0
1301 1 -12.837476854948905 -2.161305684484752 8.274720059648782 1 0 0
241 1 -10.880622759762002 -1.9190870097037553 9.880237924410185 0 0 0
246 1 -10.285588848867969 -0.9792803032834527 7.55053838349259 0 0 0
240 1 -8.38660896412772 -0.880345569453679 9.004537920697782 0 0 0
353 1 -3.841028942105952 -1.1267059080887467 7.367121440541904 0 0 0
387 1 -6.424867255118855 -2.177586349675476 8.282986438280926 0 0 0
354 1 -4.47871574275762 -1.9254993492678754 9.571976639462296 0 0 0
346 1 -0.5670977378263284 -1.6289596715974959 12.494615110627016 0 0 0
361 1 -1.7949353556998844 -0.9283985617069863 8.801332346122951 0 0 0
412 1 -12.383465051475033 -13.681819220894758 10.784401670804751 0 0 0
22 1 -12.28103240362572 -12.210815804385502 13.128299092535102 0 0 -1
24 1 -10.428865867615675 -13.412421744747322 12.165898320614794 0 0 -1
25 1 -8.494854066144681 -13.25574441374849 13.7049645339442 0 0 -1
467 1 -7.851366463947825 -12.403406504022229 11.513878428933577 0 0 0
466 1 -5.979515529961923 -13.609763861999559 10.475701862658184 0 0 0
420 1 -5.989504672032607 -12.196026781461235 12.881341842801213 0 0 0
472 1 -4.063923558997541 -13.368714746483997 11.959254500829616 0 0 0
764 1 -1.518536085656974 -12.416723169810943 11.098992243347688 0 1 0
426 1 -2.166372951337653 -13.310008075245147 13.402976931338806 0 0 0
370 1 -13.499951158995202 -9.820604769777216 11.866529033708105 0 0 0
460 1 -11.690672666297726 -11.186923629541113 10.906877423140823 0 0 0
402 1 -11.138652145278902 -8.830736509035045 11.002662469196636 0 0 0
28 1 -11.58318559398063 -9.821710798916772 13.298904044014076 0 0 -1
1342 1 -13.560794249913336 -4.448491058013131 8.373020449863525 1 0 0
413 1 -9.763345376531301 -10.988105468235103 12.367287420434021 0 0 0