LAMMPS data file via write_data, version 23 Jun 2022, timestep = 0

1843 atoms
3 atom types

-13.61060120744281 13.61060120744281 xlo xhi
-13.613266581077575 13.613266581077575 ylo yhi
-14.611940175849119 14.611940175849119 zlo zhi

Masses

1 55.847
2 1.008
3 1.008

Atoms # atomic

124 1 -11.65112307982487 -11.538542991279229 -13.2782680032791 0 0 0
201 1 -12.7477983891471 -13.153055325498041 -11.835348276254699 0 0 0
195 1 -13.028893056056544 -10.233223275752994 -11.719867384320285 0 0 0
192 1 -8.838137320204376 -11.493485593197647 -13.436977818391252 0 0 0
134 1 -9.99644741303933 -13.052610331099077 -12.048852128956561 0 0 0
199 1 -6.90811021784661 -12.777970125091867 -12.100653596980013 0 0 0
190 1 -5.778662278908073 -11.119498904424367 -13.68329807362569 0 0 0
198 1 -4.28597034597294 -12.56854809670641 -12.34199719398936 0 0 0
299 1 -3.151365092307959 -11.013923056311086 -13.839016825503675 0 0 1
140 1 -1.5264092663401936 -12.409104345111585 -12.504450074266689 0 0 0
196 1 -0.2564531054083048 -10.82444665373124 -13.934847342675049 0 0 0
5 1 -9.66425244909543 -2.426248359483738 -2.8122817752270244 0 0 0
122 1 -11.561435408663417 -8.723302571161883 -13.104732324373298 0 0 0
183 1 -10.192588340335426 -7.306787919838246 -11.661572918721046 0 0 0
209 1 -7.95501131253793 -4.066350619599881 -14.550054065033567 0 0 0
193 1 -10.09175479510863 -10.150872048701796 -11.938595553477306 0 0 0
191 1 -7.223237314738057 -10.09216399819619 -11.989460589062967 0 0 0
120 1 -8.891550052995804 -8.589114729681441 -13.275123413483891 0 0 0
181 1 -7.3468308856415 -7.224186675731336 -11.820932024536706 0 0 0
189 1 -4.5618069677442925 -9.844163549957473 -12.149346671081238 0 0 0
118 1 -6.1622325462307375 -8.428723081926886 -13.446499846706724 0 0 0
217 1 -4.662867316145318 -6.9275962671142794 -12.107357296270985 0 0 0
188 1 -1.7347955870684508 -9.73524983870254 -12.340926235392477 0 0 0
146 1 -3.2449150163781972 -8.217202405647134 -13.650154098938195 0 0 0
115 1 -0.4228979954475811 -8.030054544715021 -13.76738094748509 0 0 0
116 1 -1.7149453496444398 -6.9307451104802205 -12.245018819373822 0 0 0
95 1 -11.91625913250107 -5.890841281261602 -13.062696862936749 0 0 0
197 1 -0.05541952055226851 -11.068136883982934 -10.994618710785414 0 0 0
10 1 -8.265370980401315 -1.0937280663938065 -1.3877064907082648 0 0 0
93 1 -9.037052967809721 -5.610226387156258 -13.128695369075123 0 0 0
91 1 -6.188815774724093 -5.496420514465877 -13.247371763490294 0 0 0
216 1 -4.683482180423679 -4.15327019154868 -11.814923595803908 0 0 0
89 1 -3.3120136644378793 -5.3271957425941725 -13.442862766042564 0 0 0
211 1 -0.5857082836334548 -5.162181506566462 -13.62372394550248 0 0 0
218 1 -1.7523387596848945 -3.9448501513769685 -11.895426229147791 0 0 0
224 1 -12.174182207662318 -0.04496588614329866 -12.702606204444333 0 0 0
213 1 -12.191729196135846 -3.1112292710666978 -12.88503734407937 0 0 0
202 1 -10.855599793729395 -1.3895340519470434 -14.288863268348507 0 0 0
215 1 -9.226214410433627 -2.8855716809842935 -12.794137330281469 0 0 0
1614 1 -0.1908587755488167 -13.528841196149061 -1.0513745877884482 0 1 0
642 1 -6.151394407614039 -13.24893309009982 -3.55541937198268 0 1 0
203 1 -6.349660615922544 -2.6443962471164273 -13.10159293187523 0 0 0
204 1 -3.5145495144504437 -2.4558845211009945 -13.246471512775967 0 0 0
260 1 -0.6500491494054028 -2.3799075466144757 -13.279312771289714 0 0 1
205 1 -1.9333456568279086 -0.9453445213604859 -11.862399335417582 0 0 0
1000 1 -12.598414964451184 -13.418915491279106 -9.091152990077807 1 0 0
136 1 -11.287168335386593 -11.824049341961922 -10.427350544962493 0 0 0
1047 1 -12.733657669850007 -10.523389573387986 -8.80584554378499 1 0 0
593 1 -9.71664751892281 -13.21791358985578 -9.097637050862849 0 1 0
587 1 -8.466561389053913 -11.565490775522154 -10.585279215053642 0 1 0
594 1 -6.8870267133686776 -12.9840747565385 -9.254164786729078 0 1 0
126 1 -9.863424003075094 -10.376154904681648 -8.97149556677185 0 0 0
132 1 -5.6356750758390275 -11.373775073444248 -10.755883548812568 0 0 0
143 1 -4.068797835074527 -12.827031371810582 -9.477488424520438 0 0 0
130 1 -2.7927812329823745 -11.223311360131566 -10.896772889726018 0 0 0
74 1 -1.1658200960181428 -12.776587037287578 -9.714033281873391 0 0 0
1095 1 -13.12470740199784 -7.465680582563672 -11.556318715645329 1 0 0
185 1 -11.598885080441153 -8.930700437811662 -10.366892107047175 0 0 0
133 1 -6.857907791215418 -10.223009080650058 -9.219044588462602 0 0 0
123 1 -8.5501124979537 -8.755132731036202 -10.285687509746868 0 0 0
182 1 -7.039338227521017 -7.236452942764578 -8.927234525987998 0 0 0
184 1 -9.853360390478937 -7.590305622165204 -8.766251026557093 0 0 0
187 1 -3.983841146617534 -9.91635077586552 -9.210956811220102 0 0 0
114 1 -5.588987249329186 -8.497010960001614 -10.520358343544926 0 0 0
112 1 -4.23780716097205 -7.163668035308713 -9.235209292295208 0 0 0
129 1 -1.2983510613363922 -9.700236510711548 -9.467190876107185 0 0 0
179 1 -2.9951893353325243 -8.417982664588973 -10.827507352018177 0 0 0
178 1 -1.5702525916265238 -7.14338407176597 -9.290377143879706 0 0 0
186 1 -0.1629594323532917 -8.312318734849594 -10.93833406106135 0 0 0
64 1 -10.389606813854911 -4.545305559887014 -11.486588146421184 0 0 0
94 1 -11.616358851542188 -6.12809512069911 -10.204806113474 0 0 0
66 1 -13.297548464611712 -4.59171473943513 -11.500054206826023 0 0 0
62 1 -7.541467779721714 -4.308938534804286 -11.611203579199707 0 0 0
92 1 -8.65878509131567 -5.886032558261684 -10.212611372670679 0 0 0
174 1 -10.258907742784391 -4.778779995686293 -8.680820951900309 0 0 0
171 1 -7.160996100382307 -4.505891710334096 -8.885033145436736 0 0 0
90 1 -5.767127393523882 -5.751142758697093 -10.459622734891848 0 0 0
60 1 -4.351115757723123 -4.390330519707181 -9.047707250021123 0 0 0
87 1 -0.33596596400350087 -5.443674675277348 -10.580223957043358 0 0 0
88 1 -3.0138265558312956 -5.655472641901926 -10.745509037831047 0 0 0
58 1 -1.660185721570132 -4.180424432312897 -9.072766622289642 0 0 0
65 1 -11.82472379732963 -3.3211630352425665 -10.109140298214458 0 0 0
235 1 -11.961450406983197 -0.39649641810517267 -9.813657246190857 0 0 0
222 1 -13.510609576462585 -1.805512703725224 -11.256060809279544 0 0 0
63 1 -10.706750450605256 -1.7302210232933124 -11.340517653877344 0 0 0
172 1 -8.981794706131556 -3.0214061971096555 -10.100903657131678 0 0 0
225 1 -7.813477463582215 -1.4523133741296448 -11.476612479059321 0 0 0
234 1 -9.263777465333204 -0.2846801119609186 -9.959402921598436 0 0 0
228 1 -4.86925074169597 -1.2664517323114328 -11.830646052243235 0 0 0
226 1 -6.1271385934898595 -2.9269432892501026 -10.25830917839826 0 0 0
227 1 -4.6252053732463505 -1.5084546874773253 -8.864260439012341 0 0 0
1104 1 -13.31481768643868 -7.313734063518801 -14.484856504679666 1 0 0
230 1 -0.3231143320035521 -2.4606956851470887 -10.497123578188432 0 0 0
219 1 -3.217585663666968 -2.7726332006660073 -10.432253008381757 0 0 0
229 1 -1.7902540910857727 -1.3284223056861766 -9.004013029825167 0 0 0
137 1 -11.060245770188896 -11.962029817627897 -7.685070825278572 0 0 0
981 1 -12.434733798399044 -10.631300113352097 -6.115767854721998 1 0 0
607 1 -9.249477434032134 -13.51668703090658 -3.564833915338479 0 1 0
135 1 -8.277420242467763 -11.69773388449448 -7.8106254515294715 0 0 0
70 1 -9.490068225045427 -10.628585382999056 -6.058883560424176 0 0 0
614 1 -9.457980402425452 -13.272485120789176 -6.342972451642003 0 1 0
610 1 -3.6953548182796414 -13.063112117998642 -6.7324168963072895 0 1 0
56 1 -5.356885232384196 -11.580456970198618 -7.924869483646715 0 0 0
68 1 -6.798465000768242 -10.49399566077792 -6.194623417424468 0 0 0
609 1 -6.6159743615305935 -13.180366834290844 -6.5641848516147885 0 1 0
54 1 -3.8760466318146563 -10.255851363242448 -6.508010769483896 0 0 0
131 1 -2.407425980708691 -11.519679685412585 -7.931711730254848 0 0 0
73 1 -0.8557797874500483 -12.889327069404146 -6.648171837156759 0 0 0
109 1 -12.824931508052844 -7.7187806613663925 -8.762810733333318 0 0 0
125 1 -11.088951851865092 -9.197720780851679 -7.4724993287082775 0 0 0
121 1 -8.193369831798734 -8.982251006224281 -7.589620403289847 0 0 0
107 1 -9.71794911907006 -7.755154606067588 -6.026641549933235 0 0 0
105 1 -6.861826609337241 -7.630732972449585 -5.963743970852203 0 0 0
180 1 -5.457273408022466 -8.802203501838981 -7.744717632220211 0 0 0
45 1 -3.975966146958502 -7.411254871157775 -6.281774895373822 0 0 0
111 1 -0.9572982981659433 -10.140978467441105 -6.498440676438632 0 0 0
113 1 -2.5867561496635023 -8.61612327502191 -7.743516876227538 0 0 0
168 1 -1.081108968824962 -7.361933820226373 -6.344920943658705 0 0 0
175 1 -11.41468109840648 -6.330218464873 -7.2423111268201685 0 0 0
176 1 -12.978304743774494 -4.914624147730779 -8.627798354540694 0 0 0
164 1 -11.571960985908007 -3.4967421664296676 -7.225162273261382 0 0 0
173 1 -8.368711913782796 -6.085233206528517 -7.335646969695611 0 0 0
161 1 -6.959759999812911 -4.7445527858467145 -5.83822096975549 0 0 0
103 1 -5.587011592042792 -5.9623443643803355 -7.490778827152192 0 0 0
61 1 -4.14802230054322 -4.593743119567735 -6.082575756741797 0 0 0
170 1 -2.762432171250655 -5.862137608920347 -7.693789594279184 0 0 0
57 1 -1.2763108533254677 -4.462028847834844 -6.20493300289681 0 0 0
223 1 -13.170725541641808 -2.0155788275060367 -8.47049067995111 0 0 0
233 1 -11.826425272290809 -0.5989002740674163 -6.974795800212052 0 0 0
35 1 -10.366443560160212 -1.8527814892262366 -8.532415424347997 0 0 0
162 1 -8.69254106012971 -3.489568819848678 -7.195674050355661 0 0 0
567 1 -7.512793448588328 -1.6413482650256146 -8.611490572687817 0 0 0
4 1 -8.92340811438072 -0.48743812354447513 -7.072234679535786 0 0 0
33 1 -5.687120751508661 -3.1379484257035415 -7.420819458042833 0 0 0
569 1 -6.036697087215577 -0.2185990410455183 -7.2790390142524615 0 0 0
31 1 -4.3172734366879055 -1.7071130480784333 -6.025228143376083 0 0 0
214 1 -10.637229367212585 -4.1619359086255425 -14.330045068888232 0 0 0
59 1 -3.0065048610068796 -3.0121875379223777 -7.565673965860332 0 0 0
923 1 -1.5860934215222215 -1.6257326909144734 -5.998239947834115 0 0 0
540 1 -8.092891888588456 -1.1789116394453423 -14.390429516276383 0 0 0
1064 1 -1.0343081523910875 -1.9729807313175822 -0.42714786367024793 0 0 0
69 1 -10.857368976193932 -12.067935973914551 -4.852163812856363 0 0 0
50 1 -12.253669003695594 -11.021354075569466 -3.130769528303059 0 0 0
583 1 -2.7620935571786926 -0.3258848218215675 -1.7426551477888985 0 0 0
150 1 -6.835644247501468 -2.205340907993735 -2.9505716894005527 0 0 0
616 1 -7.802988673188889 -12.00704798464256 -4.835720423559046 0 1 0
22 1 -9.244239008258978 -10.862531761121465 -3.248073529371572 0 0 0
20 1 -4.980385136108374 -11.904396849270675 -5.044600970569164 0 0 0
46 1 -6.269956095027795 -10.60547315243194 -3.420831941684707 0 0 0
53 1 -3.497339197412593 -10.492568611271373 -3.542195937329831 0 0 0
55 1 -3.3598264294545377 -13.472535763718849 -3.838461507595614 0 0 0
447 1 -9.127428740302335 -5.365230073473684 -0.028446728680446398 0 0 0
1610 1 -0.6443885422403284 -10.196598339625652 -3.6334777819799253 0 1 0
25 1 -2.2500203066137185 -11.719841176205813 -5.199363943005201 0 0 0
1583 1 -0.542947946843336 -13.31525720298988 -3.8460524959733426 0 1 0
108 1 -12.564499648143178 -7.980296307289019 -5.8732399484865905 0 0 0
49 1 -10.887179171483933 -9.355506792125798 -4.665143918446104 0 0 0
39 1 -12.346915892499535 -8.21917464869994 -2.9856338093904764 0 0 0
47 1 -8.15886401581914 -9.171886794711362 -4.656609774387073 0 0 0
106 1 -9.344330062569917 -8.000500402148656 -3.108743103514092 0 0 0
67 1 -5.176732011889921 -9.013962409150471 -4.947332181077453 0 0 0
104 1 -6.46192205745425 -7.994330687004332 -3.1825142547583027 0 0 0
102 1 -3.6515485799998846 -7.821385050018995 -3.3633603463908486 0 0 0
43 1 -2.287901289923054 -8.90232858594674 -4.9321707837685995 0 0 0
81 1 -0.741336260704708 -7.502610445548752 -3.451067566229037 0 0 0
97 1 -11.077325072618477 -6.69294433581153 -4.3413714374971235 0 0 0
165 1 -12.833953822757618 -5.027138002438708 -5.682589213042798 0 0 0
154 1 -11.213462003183214 -3.7915374093417658 -4.21457829590379 0 0 0
98 1 -12.309453897927803 -5.491672876114055 -2.6691942746097244 0 0 0
163 1 -9.92741610488287 -5.058816548926952 -5.795200526360562 0 0 0
85 1 -8.196935236834577 -6.364504128068333 -4.449777037570591 0 0 0
152 1 -8.484938107399561 -3.534995543650629 -4.446526287332839 0 0 0
83 1 -5.29609152458506 -6.194313766361815 -4.721488590124238 0 0 0
75 1 -3.793080501399169 -4.8142857183162615 -3.2727675551188042 0 0 0
160 1 -5.460741902483642 -3.3928393241860633 -4.48374903156799 0 0 0
169 1 -2.546357686231925 -6.119826033517186 -4.824998726561919 0 0 0
158 1 -0.9494100472066886 -4.72335708984091 -3.3558085715519397 0 0 0
36 1 -12.819025827293283 -2.3118646621966388 -5.560528154876748 0 0 0
6 1 -11.264930886483969 -1.1414818647214329 -4.10029945371992 0 0 0
32 1 -7.167263084847343 -1.9159290037834147 -5.906391853818011 0 0 0
34 1 -10.077878752591534 -2.2466017525551987 -5.764500889965511 0 0 0
3 1 -8.559004423586579 -0.8248408126979054 -4.322974432344678 0 0 0
1 1 -5.832608291666323 -0.5054064872382629 -4.489282460567107 0 0 0
159 1 -4.274151259057492 -1.846170836477171 -3.024382540345421 0 0 0
30 1 -2.7018381999662413 -3.118922472759836 -4.5722874793887005 0 0 0
28 1 -2.9513120859274746 -0.3920064342504439 -4.468769048686566 0 0 0
1065 1 -1.2831490362578464 -1.6603858208987834 -3.1738076556051382 0 0 0
14 1 -11.737098844738151 -11.418956773886368 -0.2787288901407372 0 0 0
24 1 -13.295250474667645 -12.839889921413656 -1.5585290066224395 0 0 0
23 1 -10.488162582208247 -12.587823479169293 -1.9245538583832964 0 0 0
21 1 -8.978790687303833 -11.21530733216636 -0.43405714306481613 0 0 0
656 1 -7.454723586755388 -12.260086107620332 -1.9677256055100845 0 1 0
19 1 -5.93789940560117 -10.884649990427555 -0.5405891630425028 0 0 0
18 1 -4.623882178827738 -12.074242109033468 -2.0810359990751106 0 0 0
79 1 -13.574849915708679 -6.9687781264155815 -1.2737971073488374 0 0 0
449 1 -0.33865352244330893 -10.69719587355327 -0.7425910030332616 0 0 0
16 1 -2.959320799579025 -11.006199802595175 -0.6181797888473568 0 0 0
464 1 -2.015094732132411 -12.071674589997489 -2.41949941125241 0 1 0
40 1 -11.969547331512914 -8.625404492170818 -0.10460438282616025 0 0 0
15 1 -13.478350602424925 -9.896321486282751 -1.5166369725039868 0 0 0
48 1 -10.695928308858857 -9.65601100683419 -1.7634547922137571 0 0 0
452 1 -9.13630349679337 -8.321786791690359 -0.2773320989575421 0 0 0
38 1 -7.725177756080052 -9.59700509684664 -1.7408289736841915 0 0 0
27 1 -6.0592888275900485 -8.080431075384627 -0.2809168307956167 0 0 0
44 1 -4.782554079158119 -9.263845649521064 -1.9230573270932272 0 0 0
26 1 -3.3263471042332924 -7.93429756306183 -0.40816302231012 0 0 0
953 1 -0.39849039245932083 -7.87553918775317 -0.5161510521208079 0 0 0
42 1 -2.0301767373836395 -9.164566245522906 -1.9902997195392071 0 0 0
96 1 -10.626928232803552 -6.901908485499892 -1.5881787146828081 0 0 0
436 1 -10.742677470658014 -4.115035370382577 -1.3162481670010902 0 0 0
148 1 -3.782486522733807 -2.0493135028958083 -0.3416302090121732 0 0 0
84 1 -7.794773647488202 -6.750694083770839 -1.7644978372395705 0 0 0
77 1 -9.444039540714993 -5.200089202773217 -2.962255005245863 0 0 0
151 1 -7.888494277710338 -3.9006858150114745 -1.502405487754471 0 0 0
149 1 -5.567168724122105 -0.5330860785149962 -1.5698948962869537 0 0 0
76 1 -6.610344248130715 -5.11935572057874 -3.072862514381594 0 0 0
82 1 -5.021931579911238 -6.46929831706035 -1.8858083090295104 0 0 0
147 1 -5.129548407250455 -3.651139726611003 -1.5523440578559828 0 0 0
445 1 -3.5939480966709425 -5.11115499203763 -0.3791977483493447 0 0 0
157 1 -2.470887221284661 -3.405707334333444 -1.7853239781390169 0 0 0
100 1 -2.147225128627529 -6.367839510907257 -1.8649600816772018 0 0 0
1004 1 -0.6989330475845303 -4.827683311789508 -0.442356724908052 0 0 0
1076 1 -12.482236262273691 -2.6117238197492725 -2.5200406787891225 1 0 0
153 1 -11.001247199803528 -1.2451664346703115 -1.2257406699663171 0 0 0
921 1 -0.373977542480457 -0.08992104747328078 -7.493738088378194 0 0 0
446 1 -6.31823919340506 -5.312408875868904 -0.18976038425998532 0 0 0
29 1 -3.1716534382721573 -0.14352278973291277 -7.389383686707197 0 0 0
543 1 -6.207268495032583 -0.06739090713389828 -10.1866855467008 0 0 0
212 1 -13.597048235227701 -4.416877573578022 -14.377869477863655 0 0 0
156 1 -13.58291093547298 -4.234656424339603 -1.2082841602016057 0 0 0
429 1 -13.014828357870234 -13.186712455160185 1.0439564487070587 0 0 0
381 1 -11.499236034936903 -11.77964083284586 2.5500176463923996 0 0 0
457 1 -9.965876025314113 -12.881427331801854 0.9868651035557399 0 0 0
456 1 -7.200501883574242 -12.508556505716951 0.9665210749477726 0 0 0
427 1 -8.588658191507228 -11.505946533094601 2.5328634521631432 0 0 0
455 1 -4.488269452198061 -12.483083966958217 0.7488090142779686 0 0 0
419 1 -5.755910039310041 -11.330616558589005 2.4152663553728626 0 0 0
1386 1 -1.5495683624469372 -12.507773950173794 0.6376073996155114 0 0 0
417 1 -2.9763737489585367 -11.269285426790272 2.2407162822004114 0 0 0
266 1 -12.282974385092956 -2.905809567674602 13.481397247408376 0 0 0
423 1 -13.146360143853347 -10.302922026107483 1.244038526254597 0 0 0
448 1 -13.248767484751223 -7.360043403032139 1.5195596390127744 0 0 0
414 1 -10.337278185654329 -7.119691331181028 1.4653059764296028 0 0 0
421 1 -10.214629177949082 -9.968051352567464 1.1508262654233121 0 0 0
424 1 -11.753320510485167 -8.981256501324072 2.6629228135703595 0 0 0
1212 1 -13.35231911510206 -9.992416194785058 14.565709209098587 1 0 0
13 1 -7.511841467341796 -9.658809862759448 0.9642749966625832 0 0 0
451 1 -7.597507553856094 -6.9621660528916545 1.2076312027285798 0 0 0
412 1 -8.873360093756451 -8.652800540701861 2.669749626859593 0 0 0
17 1 -4.424355064823121 -9.572211731634303 0.8825351361452203 0 0 0
410 1 -5.976389771799376 -8.521504694313547 2.567613295678507 0 0 0
454 1 -1.724564750055853 -9.410741029501885 0.8668676144380996 0 0 0
408 1 -3.053311145916725 -8.237225591250306 2.4653703324298153 0 0 0
1346 1 -0.3976922250885213 -8.003518928563835 2.4228348832009186 0 0 0
155 1 -10.525897403542285 -4.285738453480345 1.4798230220958413 0 0 0
443 1 -13.329993801151765 -4.530232142481621 1.7304047792011108 0 0 0
442 1 -12.045984542072214 -5.721972262121791 0.0892780004202205 0 0 0
440 1 -7.756199563803708 -4.27414034758182 1.4619290997050367 0 0 0
450 1 -4.683448137808686 -6.755225955590795 1.2023011456452117 0 0 0
439 1 -4.817318580183411 -3.952700626599656 1.3390640170539694 0 0 0
401 1 -6.047840507372862 -5.4946659660696415 2.9148674355997084 0 0 0
444 1 -1.7493005667143233 -6.598200044775744 0.9668048098329862 0 0 0
438 1 -2.2598577435993743 -3.7118493313223944 1.0620693813879516 0 0 0
399 1 -3.0852707569295887 -5.558069740706923 2.5845258156830244 0 0 0
1336 1 -0.44491846214412156 -5.295535396839746 2.620300132962493 0 0 0
1367 1 -12.0974605930982 -2.885426311984297 0.3189436392918097 1 0 0
435 1 -10.611497632504541 -1.4166059218403948 1.7147547930232196 0 0 0
237 1 -3.799738717264276 -2.341988411990652 13.225822376053232 0 0 0
433 1 -7.842634586460718 -1.3517234270396319 1.5069301592694 0 0 0
434 1 -9.246213335630245 -2.545012607527976 0.026377668089288875 0 0 0
431 1 -4.233059128095851 -1.772430167806009 1.9944421867651396 0 0 0
396 1 -13.543721351882567 -1.6071891732417303 1.9032641662346048 0 0 0
253 1 -5.622963631423074 -0.3733366876614479 0.9201201262209864 0 0 0
430 1 -1.6680819632385049 -1.5196412754538446 1.7211050437878779 0 0 0
1302 1 -12.83339899412501 -10.69880421918512 4.077365188838906 1 0 0
382 1 -11.261459573391479 -11.949435106561282 5.539948166618791 0 0 0
388 1 -12.542512086786129 -13.44288099171695 4.16969302750328 0 0 0
379 1 -8.25103806928364 -11.781144633002611 5.452010437542354 0 0 0
387 1 -9.686515410754474 -13.08753487799415 4.085246011425907 0 0 0
422 1 -10.04885652949143 -10.333821682633028 4.146215908065292 0 0 0
386 1 -6.864888839597513 -13.036851251659096 3.943198125536844 0 0 0
426 1 -4.199107220149818 -12.854636093554653 3.6853471622288847 0 0 0
377 1 -5.491088274775425 -11.6931313236987 5.271313559329455 0 0 0
425 1 -1.340554783218078 -12.793758306360912 3.5816332752420994 0 0 0
375 1 -2.712717227021429 -11.3688934361941 5.21666530807636 0 0 0
415 1 -13.018104298305213 -7.698182726167106 4.322542934898253 0 0 0
372 1 -11.325532766536778 -9.130773102410558 5.648857890162857 0 0 0
420 1 -7.222513567007764 -10.158311223212614 3.8993763531024985 0 0 0
413 1 -10.107685786513379 -7.489949558131682 4.304929602365922 0 0 0
411 1 -7.3558648986623805 -7.2773777007716856 4.117173481672294 0 0 0
370 1 -8.520434354220104 -9.02042312638092 5.692841814470997 0 0 0
418 1 -4.238073231969242 -9.972439755515499 3.795481325046813 0 0 0
409 1 -4.485497022566365 -6.9994049362445905 4.147415826851608 0 0 0
368 1 -5.767534406701088 -8.885419701373298 5.410038168147908 0 0 0
416 1 -1.3748846004234654 -9.825342652270491 3.6541371436396606 0 0 0
366 1 -2.850533815492561 -8.496327562027442 5.36344951252814 0 0 0
407 1 -1.5467421171650688 -6.9329931085627425 4.0554200678347545 0 0 0
405 1 -11.676641522618048 -6.003397534757859 3.0796988001605268 0 0 0
406 1 -12.96537467861656 -4.880722837283866 4.703692827749075 0 0 0
404 1 -10.132332755842526 -4.557612557460304 4.567702188640007 0 0 0
403 1 -8.805648843379199 -5.567090815760789 2.96829872820741 0 0 0
402 1 -7.30811725652413 -4.416251328005247 4.484305358605981 0 0 0
400 1 -4.47795944494532 -4.39831997302225 4.356041148123284 0 0 0
359 1 -5.9019781160707225 -6.043599768321562 5.650380564978674 0 0 0
398 1 -1.4433696241809173 -4.42467843528604 4.494379529656792 0 0 0
357 1 -2.990665068921258 -5.830975046904377 5.655040314093727 0 0 0
441 1 -11.811299990037615 -3.071382311303898 3.1276397255247783 0 0 0
397 1 -12.991568714988858 -2.117950170909925 4.934988904228275 0 0 0
251 1 -11.95263213843699 -0.3117133689575535 3.429035670045417 0 0 0
395 1 -10.35896711833211 -1.8271817382394335 4.678876514339523 0 0 0
394 1 -8.946584586089365 -2.9103052695866545 3.061833669951083 0 0 0
393 1 -7.621604789759174 -1.6431529789695851 4.695658374127733 0 0 0
1356 1 -0.2613137055990631 -10.970144263051957 2.0399819393693956 0 0 0
249 1 -5.978061173044182 -0.3293517364608096 3.544907519534865 0 0 0
392 1 -6.197655350732061 -2.899732246424348 3.031143837952351 0 0 0
391 1 -4.245834834653044 -1.7065241424865345 4.7572906663765675 0 0 0
248 1 -2.9094745330787504 -0.20224808672918293 3.5254680984985693 0 0 0
1326 1 -0.11446954467452031 -2.6929643920491415 2.9655853548884483 0 0 0
390 1 -2.750690276336515 -2.940705829952339 3.3425565711865506 0 0 0
389 1 -1.3899610435305885 -1.5650467896018316 4.7961560539105275 0 0 0
348 1 -2.790487065719418 -3.278256004619644 6.012689635131606 0 0 0
820 1 -5.460805074760016 -0.8207180041596551 11.794631302634615 0 0 0
341 1 -12.584579636922454 -10.783510045540625 7.073135870742055 0 0 0
339 1 -10.99779093977504 -12.294328132866017 8.61519399671822 0 0 0
238 1 -6.6175161881296765 -2.4585274315935095 13.260861749962766 0 0 0
380 1 -9.760245459926658 -10.579070538151841 6.995830195615978 0 0 0
337 1 -8.081707721423108 -12.17757884172692 8.348327595051652 0 0 0
824 1 -9.560034632164484 -13.288929151010539 6.934746625251448 0 1 0
823 1 -6.631345148240059 -13.206529139390291 6.8347259856077205 0 1 0
335 1 -5.182214825963319 -11.723134510941813 8.15281444188909 0 0 0
385 1 -3.812311305371635 -13.095387106039459 6.764631790349872 0 0 0
376 1 -4.178874981845366 -10.137842909453019 6.782041831210465 0 0 0
378 1 -6.819219547688104 -10.436497079011334 6.925775107674662 0 0 0
384 1 -1.0582557532532757 -12.745493056163506 6.492058691070573 0 0 0
333 1 -2.352293768350867 -11.625477840208571 8.128190118583424 0 0 0
374 1 -1.2332799294597727 -10.05883640375967 6.564712322410804 0 0 0
373 1 -12.586491889297282 -7.92942717811408 7.277581605634252 0 0 0
329 1 -11.06010606646645 -9.353587813513673 8.71251311467981 0 0 0
371 1 -9.862991264827059 -7.867339154122359 7.245358681729192 0 0 0
369 1 -7.009974222802485 -7.721186926928342 7.157378872401923 0 0 0
327 1 -8.319241027615178 -9.300533748008402 8.523211612406842 0 0 0
367 1 -4.194331919684849 -7.398327915916533 6.93733908917943 0 0 0
325 1 -5.328086772577983 -8.972059540087349 8.454596252244846 0 0 0
365 1 -1.3880728586454207 -7.287449524485724 7.013841350002798 0 0 0
323 1 -2.7513466328980005 -8.87014176771184 8.225921573762628 0 0 0
363 1 -11.538333318964082 -6.358596305298169 5.873486590578187 0 0 0
364 1 -12.838232925610766 -5.155897955795643 7.498387197612432 0 0 0
361 1 -8.59405388516279 -6.163538024700008 5.848054339069376 0 0 0
362 1 -9.865910995982368 -4.96556113492875 7.414858364147941 0 0 0
360 1 -7.118062935319112 -4.771971675703771 7.291454218017416 0 0 0
358 1 -4.30896217128935 -4.718384265784849 7.365743204691247 0 0 0
315 1 -5.61504596418754 -6.292699334939688 8.533183193386884 0 0 0
356 1 -1.308489198038263 -4.696893012580436 7.240660916072917 0 0 0
313 1 -2.6903331406991704 -6.1265514431884505 8.535810346022442 0 0 0
354 1 -11.556669688109784 -3.42841360907523 6.051995973614092 0 0 0
355 1 -12.770567871120072 -2.2499450030078485 7.667442665882602 0 0 0
247 1 -11.517331327463207 -0.5690889057416069 6.1757322823699905 0 0 0
352 1 -8.64703117028648 -3.350939238654135 6.158783817385219 0 0 0
353 1 -10.028256110646359 -2.19081244894058 7.592673773926007 0 0 0
915 1 -8.8899692901457 -0.376192125917175 6.2573485161364335 0 0 0
246 1 -7.018154827287368 -1.9402128581533216 7.443073144611022 0 0 0
350 1 -5.720794846250612 -3.2133760398446984 6.025080465946035 0 0 0
914 1 -5.888210698946874 -0.4960830409648409 6.168994792389428 0 0 0
245 1 -4.31582075040043 -1.8857542390709128 7.481476596009999 0 0 0
244 1 -2.9492870912242957 -0.2797779015763364 6.119630094325432 0 0 0
347 1 -1.38214945569767 -1.6131113830578823 7.307960333703294 0 0 0
349 1 -2.6537615374374504 -3.3307631662327175 8.835268500383838 0 0 0
432 1 -6.54201064926872 -2.5804906614393026 0.00629042483366149 0 0 0
761 1 -6.430942533185482 -13.433300378130898 9.667858775239287 0 1 0
302 1 -13.324182967721185 -12.6317034560565 11.451634159481651 0 0 0
345 1 -12.234256267720284 -11.013150141355093 10.047338299943652 0 0 0
297 1 -10.459707635433777 -12.450405778911826 11.371356106376792 0 0 0
340 1 -9.447367312650826 -10.822691859117299 10.031815391436924 0 0 0
338 1 -7.78420019324737 -12.235188857076984 11.230608133661375 0 0 0
336 1 -6.69244515143722 -10.56204358292421 9.738484419100152 0 0 0
291 1 -4.903996659915972 -12.066446408988382 11.185998378168106 0 0 0
334 1 -3.762709601301406 -10.605228812683617 9.714772017715484 0 0 0
343 1 -3.588032411261679 -13.261359134135104 9.622333591113874 0 0 0
9 1 -2.9697058975921102 -0.029787848668718198 0.5928342153194581 0 0 0
342 1 -0.6395520426475976 -13.10176167224861 9.43613963813239 0 0 0
332 1 -0.9452959533626686 -10.337721767206135 9.55825701728598 0 0 0
289 1 -2.074243336359947 -11.883657568340325 10.905069793117326 0 0 0
756 1 -2.260985094164063 -0.8245497843889122 14.552016732677375 0 0 0
330 1 -12.428053533162654 -8.179754987733407 10.264331246044518 0 0 0
287 1 -10.737128017335847 -9.50299337441022 11.59570802332143 0 0 0
328 1 -9.551768652167398 -8.067062668391138 10.144229639572528 0 0 0
283 1 -7.917265322439181 -9.527907836789371 11.455044982361676 0 0 0
326 1 -6.753784134731121 -7.984422679003576 10.01925321379227 0 0 0
281 1 -5.039411958223495 -9.356309344883247 11.364762572182146 0 0 0
324 1 -4.016190126342339 -7.651419599718289 9.903377979379853 0 0 0
322 1 -1.0620624541887516 -7.499163034826277 9.81267747743062 0 0 0
279 1 -2.30199660742284 -9.074570717700862 11.071773252950807 0 0 0
319 1 -11.217306730363973 -6.685313397851111 8.820783259034153 0 0 0
320 1 -12.521897261087833 -5.298931064613132 10.41577412194527 0 0 0
310 1 -11.422970876350362 -3.788435063571473 8.95896640545825 0 0 0
317 1 -8.244615639750554 -6.436960010487639 8.527008337739028 0 0 0
308 1 -8.530183183787134 -3.529474277493943 8.835163835772557 0 0 0
273 1 -9.732685231258616 -5.2347016535403235 10.189244824604726 0 0 0
284 1 -8.180378865570084 -6.753802603275959 11.662429599242882 0 0 0
316 1 -6.931903470346229 -5.100677667222401 10.15079660755188 0 0 0
351 1 -5.581317766130432 -3.5302830792702835 8.828713282109172 0 0 0
306 1 -4.120199528136629 -4.9249574938236425 10.124204180173036 0 0 0
271 1 -5.277424991007283 -6.542344835743583 11.545791118576739 0 0 0
307 1 -5.421115039299293 -3.836534842579221 11.704774915785999 0 0 0
314 1 -2.42275260548986 -6.2591540256708305 11.42838679122576 0 0 0
304 1 -1.1154929241897094 -4.713153278614458 10.059328216886927 0 0 0
305 1 -2.357264295635412 -3.5548035722615783 11.672621507269769 0 0 0
243 1 -11.423167130402387 -0.8449569265979413 9.11077396189957 0 0 0
311 1 -12.688647953821732 -2.504317710472993 10.586597181438703 0 0 0
874 1 -8.666021382365608 -0.8308688685868173 9.060763446323525 0 0 0
318 1 -9.819235429684518 -2.4082747821630193 10.420344416879365 0 0 0
242 1 -6.963901555578329 -2.3056592461448613 10.403095645628996 0 0 0
873 1 -5.725657160375761 -0.6147052811685345 9.137885216440944 0 0 0
241 1 -4.121432356720595 -2.181852295739237 10.323858072178291 0 0 0
872 1 -2.6290843395549306 -0.6564733990241258 9.075874455154095 0 0 0
240 1 -1.1055137350110513 -1.9818672409970013 10.348277203753776 0 0 0
1177 1 -13.10807727927437 -12.811357828347674 14.407767480753511 1 0 0
194 1 -11.86123205759761 -11.295278317824412 13.033423066805975 0 0 -1
294 1 -10.209641233420632 -12.711208115451903 14.285034573676233 0 0 0
295 1 -9.140851769470721 -11.005432671729714 12.813870290548001 0 0 0
300 1 -7.436537141978541 -12.49438975453752 14.061492899228613 0 0 0
702 1 -4.557039198361153 -12.447773323291575 13.92560867046671 0 1 0
293 1 -6.228305011296489 -10.860823247152272 12.740635167156979 0 0 0
290 1 -3.422486034156595 -10.808817285383562 12.523453784764245 0 0 0
256 1 -1.7132130240342498 -12.186198182442418 13.861961655100659 0 0 0
288 1 -0.5902987423628581 -10.53878080730522 12.408895404246087 0 0 0