LAMMPS data file via write_data, version 29 Sep 2021, timestep = 0

1876 atoms
3 atom types

-14.552231478082465 14.552231478082465 xlo xhi
-14.107943778440136 14.107943778440136 ylo yhi
-13.478578951702898 13.478578951702898 zlo zhi

Masses

1 55.847
2 1.008
3 1.008

Atoms # atomic

1404 1 -13.685480105000357 -0.005416426011008113 -1.6002734543254622 1 0 0
558 1 -7.533923209636186 -12.56543080135227 -11.663986042785396 0 1 0
170 1 -5.54053966009846 -11.896955706496119 -12.83705163204679 0 0 0
632 1 -4.853285157376096 -12.470557258956921 -10.61034931464144 0 1 0
620 1 -3.8522144793532345 -13.664021111917451 -13.065730121985954 0 1 0
232 1 -2.866750749944691 -11.555402758371587 -11.926187105767898 0 0 0
54 1 -1.0908032731437238 -13.171772050466881 -12.099169637009167 0 0 0
20 1 -2.5842277857749814 -0.05675058470007066 -7.240440082392183 0 0 0
3 1 -0.008696771016007077 -2.3014030832847716 -5.166755430565942 0 0 0
94 1 -14.366171071722366 -3.2690456778649253 -12.267453259285833 0 0 0
172 1 -7.265870379347302 -10.071201623415575 -12.654913045774578 0 0 0
175 1 -6.393194340194491 -10.55028032269829 -10.387322995979812 0 0 0
366 1 -8.331750125655969 -8.855264291976749 -10.313921772678523 0 0 1
208 1 -4.579910925738927 -9.916446072900298 -11.76802775429234 0 0 0
240 1 -2.6951240514184445 -8.883911890261544 -13.009757940279128 0 0 1
233 1 -1.8786726097821482 -9.562250089466996 -10.849740310689201 0 0 0
57 1 -0.8763676294116696 -10.63407442078324 -13.365974155727423 0 0 0
478 1 -7.866775062015952 -14.02377218781854 -0.9635137344631683 0 1 0
408 1 -12.678119498980676 -7.458844585390535 -11.149901778756416 0 0 1
725 1 -14.278586449221674 -0.5944249581971004 -13.394317949797449 0 0 1
114 1 -9.090849267217148 -8.335272395061603 -12.62038668470815 0 0 0
117 1 -10.755615838849938 -6.549074006340541 -12.515667189391777 0 0 0
116 1 -10.043086675325128 -7.263916330493495 -10.266620000604433 0 0 0
177 1 -6.334916134929557 -8.087823780313862 -11.679922756455763 0 0 0
121 1 -8.04042391208645 -6.316427816930868 -11.558991537188463 0 0 0
206 1 -4.452276447854851 -7.117866774480598 -13.011396115521428 0 0 0
207 1 -3.7280571915516543 -7.875635010824628 -10.705966135871995 0 0 0
185 1 -5.399638892184136 -6.109454670330633 -10.54885808813128 0 0 0
43 1 -1.6955742026631277 -7.0194240111165245 -11.80202338946407 0 0 0
97 1 -12.63155734032699 -4.964488300273587 -12.284297097401119 0 0 0
131 1 -9.94771023600408 -4.591461200218076 -11.354531409239002 0 0 0
186 1 -6.309253367771074 -5.463104973875096 -12.723460804035298 0 0 0
122 1 -8.07755834282428 -3.6915445654134995 -12.748227631435922 0 0 0
196 1 -7.142520538518387 -4.44168113626889 -10.42248656296398 0 0 0
187 1 -5.265934451704986 -3.459688347325347 -11.685574608743597 0 0 0
205 1 -3.579206272690069 -5.248667965342586 -11.730601520537046 0 0 0
1048 1 -0.8454798038687183 -4.917997120965669 -10.848794676829625 0 0 0
2 1 -2.556398403039518 -3.235479068656103 -10.68712005473973 0 0 0
244 1 -1.7587428022979452 -4.52142819173104 -13.178351389392887 0 0 1
101 1 -13.411510133047438 -1.0991925183401055 -11.134791926858291 0 0 0
466 1 -14.045359765452226 -14.03085041653688 -5.18460915519718 0 1 0
522 1 -11.671259944616047 -8.735170629456572 -13.393595111222158 0 1 0
84 1 -11.65563797628374 -2.792279209971797 -11.2844533825078 0 0 0
568 1 -11.465791636946534 -0.2945636782062895 -12.460053917878716 0 0 0
91 1 -9.832900875536215 -1.9884219807252173 -12.518368477654453 0 0 0
136 1 -8.921795726817065 -2.528167955573309 -10.209487182522745 0 0 0
10 1 -7.061877723199918 -1.7567958201392901 -11.644349079779143 0 0 0
9 1 -3.3979087456253385 -2.6456057083469915 -12.974355313508942 0 0 0
6 1 -5.148147449501302 -0.9824290793840795 -12.794323676132484 0 0 0
16 1 -4.417825852904482 -1.5282648868465678 -10.633252262609194 0 0 0
18 1 -2.479468972195212 -0.46433377500231465 -11.902378172763617 0 0 0
241 1 -0.825864110339424 -2.2667387982600324 -12.107897571054618 0 0 1
108 1 -10.23769454748334 -12.346754976467048 -7.929089489846112 0 0 0
1638 1 -0.12793361945143822 -1.6152094535081893 -0.4511954178021611 0 0 0
381 1 -6.584486139273832 -13.202164785796475 -9.236359080969779 0 0 1
125 1 -8.351949509372918 -11.60476623053411 -9.289622918967758 0 0 0
169 1 -7.693236490623134 -12.054345814931262 -6.873347774329945 0 0 0
191 1 -5.709941620991591 -13.781722014980552 -6.943119699317604 0 0 0
183 1 -3.8756112502623843 -12.994748969892191 -8.339955280334117 0 0 0
59 1 -2.041357074432174 -12.106793382757624 -9.665674479753536 0 0 0
47 1 -1.0394731812653237 -12.702356509323604 -7.404511389297258 0 0 0
49 1 -0.40771866473532903 -13.852757017703157 -9.944581810209442 0 0 0
88 1 -13.693655738540016 -8.896239568034872 -7.511789206676812 0 0 0
127 1 -11.882971810910858 -10.589435555931544 -7.648465258233014 0 0 0
190 1 -9.355547575727961 -10.279447699093913 -6.839629963689754 0 0 0
189 1 -7.3361981904257405 -9.372504153428142 -8.01425673536404 0 0 0
174 1 -5.720371539982882 -11.222876520811555 -8.165006299859808 0 0 0
48 1 -3.658771627911552 -10.30053420656248 -9.526214850080883 0 0 0
182 1 -4.667854734437938 -9.22910769164513 -7.11595845820375 0 0 0
176 1 -5.413242152543148 -8.48667781982137 -9.348537567079928 0 0 0
40 1 -2.9704497673223234 -10.927229792609783 -7.281754059725612 0 0 0
46 1 -0.9940955266091152 -10.049859941414974 -8.524717607528746 0 0 0
115 1 -11.807057012525703 -8.22025095230994 -8.947332072516833 0 0 0
128 1 -13.511228038003543 -6.277439432211377 -8.701767813913225 0 0 0
1201 1 -13.506889134896133 -6.973876460240784 -13.445752121981966 1 0 1
192 1 -9.32851087584962 -7.7687957922991835 -7.9882140349234145 0 0 0
129 1 -10.894902670676693 -6.050612283848787 -7.700379779401449 0 0 0
210 1 -7.4241263351437885 -6.805700358314712 -9.196119605444999 0 0 0
193 1 -6.481249095243063 -7.487135303062123 -6.870473647230467 0 0 0
181 1 -4.594899635709659 -6.664403069849869 -8.051471366934978 0 0 0
38 1 -2.7234661595879484 -8.37709517702269 -8.215034790524726 0 0 0
29 1 -2.7285613620090317 -5.888081162956851 -9.452943472885053 0 0 0
44 1 -0.9165349624565451 -7.541972178858937 -9.634653644456842 0 0 0
37 1 -1.7760942119074752 -6.359182956451621 -7.153997576166691 0 0 0
45 1 -2.720930489308767 -1.8683974913020798 -1.3191567134452846 0 0 0
130 1 -11.73536929402032 -5.420801653259387 -10.068451468993121 0 0 0
86 1 -13.464165220070445 -3.8121711273370575 -9.873926839236008 0 0 0
87 1 -12.631105659258765 -4.246709013581691 -7.645008588642795 0 0 0
85 1 -10.843728967524532 -3.3949175834573673 -8.967647821335753 0 0 0
194 1 -9.090027903162177 -5.104898935787245 -9.146750163417465 0 0 0
195 1 -6.341245805815824 -4.841971429017818 -8.220577891609661 0 0 0
214 1 -8.148661431572222 -3.099772851478402 -7.982804574879608 0 0 0
179 1 -4.345424401108499 -4.039448075784351 -9.415867528018468 0 0 0
180 1 -3.643297452859649 -4.573079217297252 -7.112190768299793 0 0 0
133 1 -5.3727876342119885 -2.9177892963697047 -6.98672308618346 0 0 0
938 1 -1.7470020630433822 -3.7671525236770655 -8.37341341851797 0 0 0
78 1 -12.598052043661083 -1.5814560380104314 -8.841942837056955 0 0 0
60 1 -5.457713960836998 -2.256701093368248 -2.1745768720727803 0 0 0
83 1 -10.681258293494018 -0.858620167022 -10.138128464830045 0 0 0
151 1 -9.885659031527545 -1.406649868349783 -7.825637664009556 0 0 0
197 1 -6.22486756350577 -2.409797428823868 -9.413973148569593 0 0 0
137 1 -7.912017782911032 -0.6085489208123604 -9.123572240469318 0 0 0
12 1 -7.056105114983413 -1.2702186600042076 -6.990967069915141 0 0 0
11 1 -5.278661518698925 -0.26353648090894666 -8.188714469165559 0 0 0
22 1 -3.4147410392180806 -2.0450703392152576 -8.36728325072221 0 0 0
17 1 -1.554386413390798 -1.1999786741083103 -9.767384918072787 0 0 0
178 1 -0.7756641111753879 -1.7859285437281311 -7.401969080369647 0 0 0
532 1 -12.201955887808715 -12.95673253703354 -6.610184290812516 0 1 0
198 1 -13.02946292416819 -12.112908489828486 -4.114116237870094 0 0 0
126 1 -13.863854723699209 -11.36443282994327 -6.297009057642754 0 0 0
209 1 -0.10374272011386587 -11.139469065326358 -11.018211072325105 0 0 0
199 1 -11.20203222345301 -13.753199366864415 -4.362195566607587 0 0 0
188 1 -9.490742006088418 -12.818677250240315 -5.580621683900254 0 0 0
28 1 -6.869209683879485 -12.469466599677892 -4.635189562380585 0 0 0
184 1 -4.8175709706163925 -11.739266748190495 -5.887862151959729 0 0 0
27 1 -3.9677138807473344 -12.265211621761008 -3.6304864920336275 0 0 0
41 1 -3.093119048848644 -13.342023635228374 -5.998107216313236 0 0 0
1060 1 -0.04515223813882585 -8.084102837223137 -7.399588540630296 0 0 0
56 1 -0.35982278332206263 -13.183337297245417 -5.086992389080487 0 0 0
64 1 -2.0749972328863375 -11.505120418657205 -4.879338703258455 0 0 0
124 1 -12.9719768422663 -9.40735017351953 -5.2342762056643455 0 0 0
200 1 -11.179701965797076 -11.160717098573889 -5.3815913908006845 0 0 0
217 1 -10.292956868323412 -9.108847843514276 -4.248156227517688 0 0 0
96 1 -11.160939027050565 -8.585797578649903 -6.370270393426745 0 0 0
201 1 -8.545073766780423 -10.83551322895183 -4.416975883960092 0 0 0
148 1 -6.581305882810308 -10.028703934927915 -5.776676759467277 0 0 0
149 1 -5.823080299188215 -10.52567446131108 -3.4180001407118397 0 0 0
202 1 -8.428233073297303 -8.378271060613228 -5.623740049748222 0 0 0
26 1 -3.936025008351578 -9.794524817245966 -4.76439287923648 0 0 0
1059 1 -0.3081422367836737 -10.655148498115858 -6.2110170144954715 0 0 0
25 1 -1.0761175450105025 -9.510903289616586 -3.7296949274662214 0 0 0
39 1 -1.886170333188776 -8.967771496008329 -6.020694685268542 0 0 0
1041 1 -12.901583404313836 -6.832402324331168 -6.329477578513432 1 0 0
141 1 -12.107880136735366 -7.21994856972515 -4.109751706568703 0 0 0
157 1 -13.908453401171434 -5.67993056998016 -3.883641397541764 0 0 0
144 1 -10.13706465090697 -6.63095583364576 -5.5145512495956455 0 0 0
204 1 -8.20653491734425 -5.680343771125388 -6.8063546194211035 0 0 0
221 1 -7.438387403914723 -6.282507252927672 -4.540708859598812 0 0 0
203 1 -5.585709066094562 -8.047715305292435 -4.560419824409134 0 0 0
24 1 -3.6570141933219364 -7.135096902842541 -5.981533479925725 0 0 0
147 1 -4.7181495728517255 -6.018721356056396 -3.594658103351259 0 0 0
34 1 -2.974470555014477 -7.777718205260676 -3.6533503382702257 0 0 0
23 1 -1.0263497526722567 -6.988770864838257 -4.937352583639681 0 0 0
73 1 -13.60418406112278 -3.0607806548572842 -5.090160785023771 0 0 0
143 1 -11.940411507918707 -4.808673473055558 -5.245884705058579 0 0 0
5 1 -1.0302508775821284 -1.0759913575311106 -2.673675974405336 0 0 0
145 1 -10.118961798087046 -3.9155007585365915 -6.632767343927712 0 0 0
158 1 -9.097120384218965 -4.555509067887687 -4.295458315895582 0 0 0
159 1 -10.924786601672302 -2.8646089579313223 -4.180834214701912 0 0 0
213 1 -7.08228377914289 -3.7353398003726035 -5.581977713608259 0 0 0
222 1 -6.4528366486705035 -4.2611131985464255 -3.356853915347397 0 0 0
135 1 -5.547572694538754 -5.46662199922204 -5.911768074994273 0 0 0
89 1 -4.704238530415797 -3.4080490450349874 -4.6470897034813845 0 0 0
1074 1 -0.05971289048924611 -4.995138735908604 -3.9553412681327274 0 0 0
134 1 -2.742434091187798 -5.1251806442149 -4.8655250781273764 0 0 0
952 1 -0.9238641680793016 -4.33890407032051 -6.243459997552482 0 0 0
36 1 -1.8616017201176653 -3.149158397010911 -3.71357536018839 0 0 0
70 1 -13.50024304983642 -0.5326163256364254 -6.385368579497471 0 0 0
71 1 -12.66398771863094 -1.0935140438891722 -4.101572794278592 0 0 0
79 1 -11.78954102212761 -2.3269109796703784 -6.546004479340513 0 0 0
146 1 -9.014571905455945 -2.089540657663145 -5.573678324734284 0 0 0
161 1 -10.757483605517937 -0.31530019995726377 -5.3533035503389605 0 0 0
223 1 -6.291488367412336 -1.5689996993482218 -4.536074673580879 0 0 0
75 1 -3.6126286970379766 -1.3891744136635111 -3.629778316669471 0 0 0
215 1 -4.478102040258493 -0.8153807213146749 -5.988817997601242 0 0 0
19 1 -2.72743201562108 -2.6676988870941223 -5.961914956995448 0 0 0
132 1 -1.7999232114220778 -0.662742137749941 -4.956625674898973 0 0 0
1653 1 -14.186144828487919 -13.484201846234019 -0.43629305869221646 1 1 0
317 1 -12.334456127863612 -12.622898087613784 -1.755995848371077 0 0 0
120 1 -10.367168019987398 -11.688800131202475 -3.1004684567466736 0 0 0
356 1 -9.641414772794079 -12.227555702988008 -0.8988820483958282 0 0 0
1015 1 -14.39691839533106 -5.867181909624252 -10.993916712353478 1 0 0
476 1 -8.475152596696221 -13.570369647169194 -3.2973154071157644 0 1 0
119 1 -7.675395313649938 -11.40132866795401 -2.160949331552997 0 0 0
162 1 -5.934900807490495 -13.185777745536694 -2.343227184392754 0 0 0
229 1 -4.596904875721302 -0.28281539565309544 -1.1658288026853239 0 0 0
353 1 -3.2012733610585506 -12.966274835834682 -1.2846484625842738 0 0 0
63 1 -1.2516803990977614 -12.031570284358747 -2.626147315928776 0 0 0
1386 1 -0.4629593083589345 -12.633275062346216 -0.3848249084154638 0 0 0
138 1 -14.02524703683873 -10.952513266103693 -1.6004487172505666 0 0 0
216 1 -12.200779717782467 -9.957602290871257 -2.9557195631806223 0 0 0
446 1 -13.26131167275781 -8.72884607105123 -0.47860271931511456 0 0 0
448 1 -11.473795003590817 -10.605326034050819 -0.7142609955854855 0 0 0
140 1 -9.442054351344026 -9.656906220385276 -2.0189097352001717 0 0 0
105 1 -7.615882368412765 -8.799266779727457 -3.3640336183065678 0 0 0
357 1 -6.746577303218775 -9.38956810437566 -0.9137563659224597 0 0 0
379 1 -4.018273822385682 -9.167090579840604 -0.012230614424300512 0 0 0
118 1 -5.014709284441199 -11.220139447696901 -1.2473393687797838 0 0 0
32 1 -3.0987666348884506 -10.295110334728253 -2.436960560428565 0 0 0
104 1 -4.968771136692581 -8.509142918076854 -2.301410889372727 0 0 0
31 1 -2.2780116526223075 -10.890694328319658 -0.20176793631637047 0 0 0
66 1 -0.34149574535934946 -9.970787273957438 -1.4627275976514778 0 0 0
139 1 -13.94881332842026 -8.331429329721217 -2.82233375167694 0 0 0
155 1 -12.989890567278291 -6.270560570685812 -1.6867108918043456 0 0 0
219 1 -9.43756812894905 -7.082769510876296 -3.184823598827185 0 0 0
154 1 -11.190622979712446 -7.852814344615554 -1.8614256026570857 0 0 0
156 1 -10.273463211398017 -5.961332885087208 -0.6632278988063334 0 0 0
218 1 -8.442279511906248 -7.624615814167279 -0.9212882778457345 0 0 0
220 1 -6.609616002165545 -6.7428377097766505 -2.33393098005169 0 0 0
103 1 -3.9163682897703467 -6.574294689411887 -1.3721456070142182 0 0 0
376 1 -1.1956332656684285 -6.22370544035657 -0.22010472322462782 0 0 0
33 1 -2.2419465810328845 -8.307559494807334 -1.3385443560769605 0 0 0
1069 1 -0.2410043543424436 -7.37300102336299 -2.607490480548311 0 0 0
35 1 -2.0527943436140568 -5.70430750970926 -2.5560818792876887 0 0 0
142 1 -12.764925035436692 -3.7873373529890166 -2.8071778908991334 0 0 0
444 1 -12.110162751994654 -4.173143379748085 -0.4963927134978743 0 0 0
81 1 -11.072212162616268 -5.281792420571419 -3.0430987114440935 0 0 0
164 1 -10.021558545987428 -3.3780410958491487 -1.9053178928215182 0 0 0
460 1 -7.336826026139322 -3.0983636825953003 -0.9829071684951529 0 0 0
225 1 -8.36677527760867 -5.140655236483971 -2.0953388515984503 0 0 0
74 1 -2.9636858303278686 -4.557301503435445 -0.15911203177346422 0 0 0
226 1 -5.603685830676561 -4.829600349264425 -1.1210283373762255 0 0 0
90 1 -3.788509845946649 -3.815236288531267 -2.558714572993999 0 0 0
51 1 -1.0389320325547011 -3.662725396090794 -1.371100895733342 0 0 0
68 1 -11.863483406114952 -1.634410745765848 -1.8504950029912095 0 0 0
1317 1 -13.741518517801826 -2.455806538259786 -0.3875404117591188 1 0 0
165 1 -9.08430351041386 -1.3462178117158086 -0.9152813667673119 0 0 0
167 1 -9.941081081703922 -0.8497910134846638 -3.0435345570192514 0 0 0
160 1 -8.181484265777453 -2.5417179548197453 -3.325208226641772 0 0 0
228 1 -7.16314436166273 -0.3881933054681248 -2.086256734926211 0 0 0
107 1 -8.593189333988171 -14.087910166057828 -8.132393058620114 0 0 0
1046 1 -0.024612192405593092 -5.518582507975339 -8.584395014972873 0 0 0
80 1 -14.35056960577575 -2.47662796245168 -7.42816140613991 0 0 0
62 1 -2.1308337669096176 -14.089865234972917 -3.7515259370955665 0 0 0
7 1 -8.80026776653807 -0.010639111224058695 -11.42905552250351 0 0 0
1156 1 -14.549830037260005 -10.980269336390082 -8.754972791272388 1 0 0
1027 1 -14.384962806350288 -0.03949410821897281 -8.763222730148783 1 0 0
95 1 -14.52041434158333 -8.3861835806572 -9.756667124729365 0 0 0
440 1 -14.490813565563684 -1.991857950797149 -2.6936052317943364 0 0 0
269 1 -12.4532887495518 -11.922597706739857 2.9111847583884245 0 0 0
429 1 -13.178220951521292 -11.513308239534616 0.6941145869760064 0 0 0
925 1 -13.236203791296113 -14.01642133536408 1.82931383036507 0 1 0
468 1 -11.433641592298553 -13.078932893303659 0.4392406379133895 0 1 0
272 1 -10.590848884423558 -13.628067265356979 2.8686683620415163 0 0 0
271 1 -8.76977683055637 -12.826297728570895 1.5065516770818412 0 0 0
803 1 -6.162038180069382 -12.556101679209181 2.453888284713269 0 1 0
359 1 -14.41195520852659 -12.172838041445258 9.038244758241989 0 0 0
355 1 -4.365879185115171 -11.607179505827622 0.9837238007399431 0 0 0
350 1 -2.3012506730839277 -13.332557924337369 1.03285248592052 0 0 0
834 1 -1.6646634407932854 -14.024889070928314 3.194049790529048 0 1 0
1365 1 -1.4026230555744306 -11.35388882274712 2.1116602362333445 0 0 0
305 1 -12.282666430594558 -9.35448132907782 1.7896383519102308 0 0 0
428 1 -14.205961932990434 -10.154710175852795 3.0059723604147823 0 0 0
308 1 -10.561589797144315 -11.12545082516254 1.6174808557787657 0 0 0
304 1 -9.602486215294348 -9.160047012536062 2.7688866066965705 0 0 0
309 1 -10.46772472628506 -8.551576402480537 0.3993982952063604 0 0 0
303 1 -8.770537900006229 -10.283195336797846 0.33398905979547955 0 0 0
306 1 -7.838547067068391 -10.863904844088763 2.733394779103927 0 0 0
352 1 -5.9274872074920495 -9.875391375497511 1.2327354847318315 0 0 0
344 1 -3.3655272257747324 -9.795323406386213 2.299290576901768 0 0 0
343 1 -0.6330144292186155 -9.40863020323229 3.2159435059375614 0 0 0
375 1 -1.4165157863536617 -8.86239168693461 0.8960046753666067 0 0 0
442 1 -12.242224109297162 -6.713397994798994 0.5676157583446688 0 0 0
1323 1 -14.032621872857971 -7.6375162760151385 1.8541627792647795 1 0 0
273 1 -11.27000085877743 -7.263710551714843 2.820716653407109 0 0 0
441 1 -9.454188933017583 -6.4278305782950635 1.5350833753143789 0 0 0
354 1 -7.797712586287167 -8.316181679980364 1.4354900605897143 0 0 0
453 1 -6.81842070895722 -6.118494412561718 2.457151509003907 0 0 0
406 1 -14.472226344630734 -9.13822363835839 12.42275323449323 0 0 0
301 1 -7.094823164820441 -11.872193226901935 0.20847540824934896 0 0 0
345 1 -5.035477411627655 -7.917350854528162 2.419167171245306 0 0 0
50 1 -3.178228585136049 -7.013674040656895 1.05272725452736 0 0 0
1376 1 -0.3691191147634285 -6.711449380580455 1.9507617298598952 0 0 0
340 1 -2.3153442582903025 -7.582135154768538 3.2928459839270925 0 0 0
424 1 -13.174923763037732 -5.620485367798407 2.994889524015816 0 0 0
447 1 -13.948139060333409 -5.080982670494716 0.7705233392237876 0 0 0
445 1 -13.02013030667497 -3.0553826326932807 1.8954000228226793 0 0 0
443 1 -11.279570091545981 -4.766687850967314 1.706433913380625 0 0 0
458 1 -9.428173557801308 -3.88132610891512 0.4109497662388666 0 0 0
436 1 -8.623910735141507 -4.337236412934844 2.6644219000827096 0 0 0
454 1 -6.7268402128085185 -3.566251587034504 1.3009005283553385 0 0 0
348 1 -4.898003476735552 -5.258272207618676 1.311101862248874 0 0 0
342 1 -3.8610312001550167 -3.3626796282221125 2.4279198030417657 0 0 0
374 1 -2.157365250279998 -5.195509954791715 2.233385130890742 0 0 0
1396 1 -0.2596810256799085 -4.203595541328378 0.8907901189531877 0 0 0
459 1 -1.2095386005466953 -2.976515272429891 3.2314966713232653 0 0 0
718 1 -12.830536238167458 -0.3997240273835132 0.5619942617717619 0 0 0
439 1 -12.117110923890587 -0.9043896100572777 2.8924397879604715 0 0 0
437 1 -10.41183291985884 -2.6571984654016685 2.827594237607416 0 0 0
438 1 -11.07180107254155 -2.1357900985069964 0.46248704687182673 0 0 0
109 1 -10.044096328271404 -10.51821181951493 13.355696027701478 0 0 -1
455 1 -8.408132765050524 -1.8067789911971825 1.4511065017946194 0 0 0
457 1 -7.505038505364273 -5.4670891513046005 0.16919906949212482 0 0 0
450 1 -5.680907428402829 -1.6485541415725393 2.552472106027837 0 0 0
267 1 -3.8039301517125335 -0.6822247123541505 1.1212103831833602 0 0 0
884 1 -3.059919734218413 -1.3228869847918112 3.4890294034333973 0 0 0
382 1 -2.0009392797526058 -2.4985054639800417 0.9035239132222266 0 0 0
1312 1 -1.164815257009284 -0.43640012665630934 1.9583024414342614 0 0 0
871 1 -13.537524713235854 -13.315049420532048 6.469069385832407 0 1 0
268 1 -14.297950572699097 -12.79110010180227 4.174152190168913 0 0 0
914 1 -11.721865372377795 -12.607393845761681 5.133587941211017 0 1 0
275 1 -9.728413494832527 -11.549870792502388 3.952834818473443 0 0 0
860 1 -8.989031319104384 -12.284498583024224 6.080525402920452 0 1 0
773 1 -8.075541019068025 -13.403693487532319 3.6844929996776745 0 1 0
850 1 -7.07802397001281 -13.83865805114138 6.03275790921475 0 1 0
300 1 -3.4122761718297525 -12.303260967224556 3.1807301044332963 0 0 0
277 1 -5.2094209626098955 -13.00898529326573 4.7237460823684305 0 0 0
296 1 -2.481787135538605 -12.585978320222274 5.6245257140077936 0 0 0
285 1 -0.5462663104629453 -12.074616050691132 4.326592992433367 0 0 0
318 1 -13.298747569673322 -10.776150392504729 5.396938309014191 0 0 0
320 1 -12.37289609234961 -8.68073066951542 6.447613856147564 0 0 0
270 1 -11.52943525260293 -9.870716713684162 4.043356686231901 0 0 0
322 1 -10.627232623948094 -10.566076058456273 6.295100374638112 0 0 0
292 1 -8.746742840379149 -9.61693370433531 5.020642004197709 0 0 0
276 1 -7.040915233239489 -11.343929719334843 4.982196507200909 0 0 0
289 1 -6.896398121733919 -8.704362267709346 3.667340040862518 0 0 0
293 1 -6.055839384364704 -9.354467692631863 6.041521975259423 0 0 0
302 1 -5.157878722019364 -10.481921132921054 3.6613207091389643 0 0 0
294 1 -4.263569390837018 -10.983196542571916 5.744463419468476 0 0 0
288 1 -4.110912821104522 -8.468981255162593 4.773350289027112 0 0 0
287 1 -2.510009081184556 -10.154716108728707 4.473989553723625 0 0 0
286 1 -1.4609769931221344 -10.72913677011202 6.770143362333878 0 0 0
427 1 -13.19084220647044 -8.17041926314991 4.03521418880967 0 0 0
423 1 -12.33013326692269 -6.2012879235807645 5.29759004940834 0 0 0
397 1 -14.168780175468926 -7.156007242753896 6.641898253721189 0 0 0
274 1 -10.529493438057656 -7.874623020770652 5.159625620335367 0 0 0
418 1 -9.546830014822078 -5.853718373073756 6.22187975636483 0 0 0
299 1 -8.672734888542049 -7.032619972838283 3.775901063018468 0 0 0
291 1 -7.869610353829213 -7.45981837102181 6.1147413624511575 0 0 0
298 1 -5.913041153488081 -6.657120801402545 4.773424080393093 0 0 0
347 1 -4.05419643254028 -5.846753606249688 3.598955887986383 0 0 0
282 1 -3.252411975559438 -6.375873653025284 5.8065060893023865 0 0 0
280 1 -1.5990767066658371 -8.223875777383498 5.453094100119051 0 0 0
258 1 -0.6182457536254145 -6.063377313090458 6.671703889076914 0 0 0
419 1 -12.206435782678362 -3.5726766593647543 4.151123367545823 0 0 0
425 1 -14.194645214694967 -4.51366533120544 5.447127171338311 0 0 0
420 1 -11.305398119564108 -4.180000166805966 6.383865139422012 0 0 0
290 1 -10.48405473396506 -5.357728787562644 3.990211650616592 0 0 0
413 1 -9.420269991713736 -3.356652536998597 5.0669539061457005 0 0 0
435 1 -7.787851321802111 -5.03906307421383 4.969067723581039 0 0 0
431 1 -6.8559089588304225 -2.9453766171430615 5.928584679701215 0 0 0
284 1 -5.8862064403651715 -4.196309500470326 3.6411974259325515 0 0 0
283 1 -4.972780450650108 -4.663260456170946 5.8945532092665776 0 0 0
341 1 -3.1469397729899047 -3.953059723323735 4.6002366340824725 0 0 0
339 1 -1.4004996272250203 -5.662331954001608 4.425026129272945 0 0 0
263 1 -0.5154420391435472 -3.4430301341630543 5.3779918651442475 0 0 0
421 1 -14.049381683768772 -1.9701581000671453 4.240870549217474 0 0 0
422 1 -13.080116540536373 -2.4785258069003913 6.552720532200455 0 0 0
433 1 -9.418595091139576 -0.5304876641035108 3.8583544677925676 0 0 0
415 1 -11.197134821110762 -1.5980097480209654 5.212870167670074 0 0 0
391 1 -8.570490090334484 -1.2080594193876504 6.074031659225012 0 0 0
394 1 -6.672280036353472 -0.3701562444655515 4.826186087667077 0 0 0
432 1 -7.724644771213947 -2.343651226796652 3.643219703944526 0 0 0
449 1 -4.986791259713421 -2.169151647074175 4.809102846923109 0 0 0
93 1 -10.768504659362746 -4.10305617000914 13.37071922862947 0 0 -1
266 1 -0.26692879871441555 -0.9506821686227962 4.254177464073633 0 0 0
265 1 -2.2169637186215407 -1.8749635448418935 5.768270451371306 0 0 0
643 1 -3.3411631406561852 -0.14243413254942539 12.759206318812515 0 0 -1
361 1 -11.765781134722818 -11.874110791761208 9.863692133891517 0 0 0
319 1 -12.43585546657962 -11.380064239166565 7.625834104684506 0 0 0
810 1 -12.679773208288031 -14.003475875878383 8.815323873534156 0 1 0
362 1 -10.859863059816544 -13.110936321684173 7.5466901482233855 0 0 0
363 1 -9.942354496715925 -13.633515625644716 9.696648395887296 0 0 0
328 1 -6.143714053509894 -11.930323881991036 7.208481073757797 0 0 0
859 1 -8.064937825070572 -12.6592587369319 8.32540037926095 0 1 0
278 1 -4.348106170861566 -13.699010102883943 6.985808476249977 0 0 0
368 1 -5.3794051449602645 -12.434800282910103 9.396996819806807 0 0 0
295 1 -3.5527833816303485 -11.518924790846551 8.176731124502767 0 0 0
696 1 -4.222789329008618 -2.167656588058618 11.499217666888166 0 0 0
316 1 -1.720694447398781 -13.351863487408117 7.850477384409304 0 0 0
337 1 -0.7710550525755675 -11.282524069051494 9.128426560435338 0 0 0
360 1 -14.220437927811767 -9.677549698010214 7.802241795342114 0 0 0
321 1 -11.67300875035301 -9.474723881894596 8.624930597134943 0 0 0
323 1 -9.921580664264486 -11.063459378402483 8.499907148453373 0 0 0
332 1 -9.016782360409259 -9.185282446665145 9.781627110569934 0 0 0
325 1 -9.670800689218513 -8.51183487863973 7.4869358802601536 0 0 0
326 1 -7.96563181355937 -10.191557539566242 7.182546601378094 0 0 0
327 1 -7.232657529363081 -10.748218074568925 9.352660814105425 0 0 0
314 1 -3.3252825265458483 -9.011381280601494 6.9091827374751045 0 0 0
335 1 -5.289304465895297 -9.863636992124135 8.222785314774542 0 0 0
315 1 -2.670507665901221 -9.486854656658512 9.198559998872527 0 0 0
279 1 -0.7581112330294513 -8.753876703436603 7.926041747663975 0 0 0
398 1 -13.304187542448872 -7.625020443722763 8.96906977958992 0 0 0
324 1 -11.447359453320555 -6.761654824955373 7.515114504613566 0 0 0
407 1 -10.702049769199586 -7.268418908983362 9.857364181424101 0 0 0
331 1 -8.678101064814209 -6.4266218401437865 8.498370621755567 0 0 0
333 1 -7.033486455465501 -8.206954364524924 8.395664700735933 0 0 0
236 1 -6.113887335548334 -6.221896541604832 9.517186096533921 0 0 0
312 1 -5.202802456154634 -7.352873148355774 7.027994145480159 0 0 0
313 1 -4.354867934870928 -7.926548480576693 9.374479712543382 0 0 0
281 1 -2.499915217359799 -7.0538252120536695 8.01117039088424 0 0 0
410 1 -12.468237081085924 -5.491181189069577 9.87440768400628 0 0 0
400 1 -13.20189536722448 -5.097239779712105 7.5666049380610065 0 0 0
402 1 -12.285619360260323 -3.056292505712472 8.805916813543545 0 0 0
409 1 -14.254975694134208 -3.8352819288836777 10.029797646163226 0 0 0
404 1 -10.558402303784849 -4.700093967923095 8.619023098512441 0 0 0
412 1 -8.685672384276398 -3.791398512408822 7.3026277502625785 0 0 0
310 1 -6.796422820356309 -5.517189775912053 7.211884932228559 0 0 0
311 1 -7.860938884062593 -4.421505824495606 9.620437875857585 0 0 0
253 1 -6.128683183273184 -3.5932137491654537 8.250082789081217 0 0 0
251 1 -4.342711754105919 -5.352121723201035 8.224014319041475 0 0 0
261 1 -3.3421193673052674 -3.283531290096036 9.201320875053282 0 0 0
259 1 -2.4206773168329754 -4.456229968127296 6.857345072948229 0 0 0
245 1 -1.591146583417542 -4.937988283810627 9.114232202267166 0 0 0
1766 1 -14.037095375327622 -1.249562487153785 8.869446484369012 1 0 0
416 1 -12.198264461827645 -0.36701557105801363 7.659741940745933 0 0 0
234 1 -9.66534559599668 -2.7061900854220493 9.662104300061001 0 0 0
414 1 -10.446317162303682 -1.9822315132468216 7.556456254997025 0 0 0
387 1 -11.42607077917722 -1.0350817596376487 9.925763751735955 0 0 0
392 1 -9.57362929203245 -0.04255564278098234 8.56757612527395 0 0 0
390 1 -7.704391711656734 -1.815863352523941 8.439272352829311 0 0 0
393 1 -5.836385127000051 -0.9234662641235225 7.106466422205669 0 0 0
262 1 -4.1258088114184766 -2.707974554653955 6.982368790490719 0 0 0
247 1 -5.108828437075985 -1.3005854253336153 9.424661073327671 0 0 0
257 1 -3.293306708308494 -0.5930740823033993 8.036784238329117 0 0 0
701 1 -0.5263585457594004 -0.37671765159195303 8.948477044745863 0 0 0
260 1 -1.4418153525416244 -2.4253055082461223 7.9490773926978004 0 0 0
380 1 -13.551022623825759 -12.69021859096617 11.335286215224842 0 0 0
757 1 -10.99184612732663 -12.496531134199731 12.27443260424558 0 1 0
367 1 -9.149307107872769 -11.640143496784214 10.796448825308337 0 0 0
231 1 -6.433001163887312 -13.934007663673045 12.943131344730082 0 0 -1
110 1 -8.401658648750345 -12.125708872380107 13.030146676188194 0 0 -1
794 1 -7.247916162084498 -13.239316115422247 10.797898281380077 0 1 0
371 1 -6.416857578334662 -11.193705486639718 11.874320346570778 0 0 0
330 1 -4.584038732100636 -13.005755726289145 11.740566483471072 0 0 0
338 1 -0.8113091949762001 -14.000347341910247 10.205389294168787 0 0 0
61 1 -2.6606314151192016 -12.151727115250793 10.355805598181488 0 0 -1
238 1 -1.8548741860156888 -12.679335489411642 12.750017410549363 0 0 0
733 1 -8.02681528936098 -1.1438853171322805 13.07766612231532 0 0 0
1257 1 -13.48125333226688 -10.160250471657 10.116921610373224 1 0 0
1011 1 -12.74031274462454 -10.663273017494504 12.37485535241556 1 0 -1
256 1 -2.3880689659177907 -1.2139743888110157 10.184045590215844 0 0 0
364 1 -10.878220656658128 -9.874397328938743 11.035305465314865 0 0 0
370 1 -8.260876615927216 -9.670283119609387 12.08201911723465 0 0 0
334 1 -6.271506933077349 -8.847794116188712 10.807308156001215 0 0 0
171 1 -3.6483841910873576 -10.940494070970107 12.774007169585845 0 0 -1