LAMMPS data file via write_data, version 2 Aug 2023, timestep = 0, units = metal

1863 atoms
3 atom types

-14.158900273350673 14.158900273350673 xlo xhi
-14.291881763781566 14.291881763781566 ylo yhi
-13.479521131738629 13.479521131738629 zlo zhi

Masses

1 55.847
2 1.008
3 1.008

Atoms # atomic

88 1 -12.974038391102457 -11.964511557780206 -11.818096479862275 0 0 0
206 1 -3.807301171662262 -5.534148177923717 -0.021003128704434104 0 0 0
170 1 -4.560490174131424 -1.0343846187870689 -13.379197948153877 0 0 0
89 1 -10.592038914503078 -12.694729153515645 -11.980441708091526 0 0 0
92 1 -8.46634530331491 -11.718047545629432 -10.401716867081916 0 0 0
119 1 -8.196528189741745 -13.321584728905552 -12.258221980351868 0 0 0
93 1 -6.058730066094505 -12.29661409895984 -10.678612140654153 0 0 0
95 1 -5.835174801395443 -13.939584530143572 -12.444861706145737 0 0 0
124 1 -3.7396679125851353 -12.941110445000353 -10.900725429669349 0 0 0
102 1 -4.480315619999681 -11.982245664933146 -13.06192815350387 0 0 0
125 1 -1.3703247483066168 -13.636222054456152 -11.10810488982671 0 0 0
126 1 -2.1493721530739673 -12.820538315710081 -13.3701905599061 0 0 0
51 1 -11.725217410987131 -9.965993039499484 -12.503649618786332 0 0 0
85 1 -13.207950918902249 -10.338477223589656 -10.144248450251427 0 0 0
43 1 -3.447388365400357 -2.5255561651879272 -2.802945138023656 0 0 0
52 1 -9.317528974696568 -10.814259045964741 -12.660505843797285 0 0 0
55 1 -9.753060205566287 -9.013415161612153 -10.946025830240806 0 0 0
50 1 -10.791166585970052 -11.018048687463713 -10.207364477760777 0 0 0
94 1 -6.9910743842567555 -11.351102459827482 -12.769228276403185 0 0 0
56 1 -7.274095161126867 -9.539735825543008 -11.083197558522144 0 0 0
57 1 -8.227430657978587 -8.718208339514739 -13.38163765387242 0 0 0
100 1 -4.723885174764021 -10.219033660287968 -11.359277718012715 0 0 0
101 1 -2.484158651266995 -10.982091466665057 -11.620325344791866 0 0 0
109 1 -1.2970967278447496 -8.86834943849778 -12.176864622542322 0 0 0
13 1 -12.139309260543783 -8.312543813118655 -10.695687070082684 0 0 0
14 1 -12.953260670580212 -7.342892346287184 -12.974510321133593 0 0 0
19 1 -10.774078069315749 -6.334727784537851 -11.21730220350598 0 0 0
15 1 -10.541722848076347 -7.983336237232256 -13.104163887875647 0 0 0
20 1 -8.331647277596499 -6.864354497593401 -11.55073411122904 0 0 0
63 1 -5.977871876568541 -7.636753946998953 -11.714872953992812 0 0 0
64 1 -3.633615310160195 -8.251731012002114 -12.049975951434632 0 0 0
69 1 -3.8926421821538035 -6.488335653395471 -10.213844996507055 0 0 0
71 1 -2.278286873227085 -6.275835376793555 -12.603807906548559 0 0 0
70 1 -1.4562092089908667 -7.226236016278761 -10.405180389787482 0 0 0
1027 1 -13.909344589573184 -9.819494708343 -3.8663581988311453 1 0 0
153 1 -13.130629188005138 -5.544360136343068 -11.095100652763039 0 0 0
156 1 -11.853674487630352 -3.572344658879869 -11.667043643407967 0 0 0
217 1 -10.992279928392282 -9.978388852840848 -0.10556798045291416 0 0 0
157 1 -9.416471143823445 -4.382746053694719 -11.965158959364336 0 0 0
26 1 -7.049272332839201 -4.906188563527341 -12.146980077396098 0 0 0
161 1 -7.290310872784334 -3.29399249294023 -10.295266107172106 0 0 0
163 1 -5.796890400298011 -2.965971094128715 -12.710106570388895 0 0 0
27 1 -4.71307123592922 -5.528156263472869 -12.26252845685119 0 0 0
32 1 -4.974280733468801 -3.784278611716328 -10.500111283121166 0 0 0
34 1 -3.402185683289316 -3.5585142157338314 -12.991320654757681 0 0 0
33 1 -2.6031886897014296 -4.619944468236859 -10.764965259355114 0 0 0
35 1 -1.065615744896581 -4.30000141276334 -13.133726985446339 0 0 0
79 1 -0.24647196189373233 -5.166745085439603 -10.991720408544996 0 0 0
148 1 -12.983561482952656 -1.0055343385476387 -12.117192131447633 0 0 0
149 1 -10.535144975155339 -1.5730238355218624 -12.403118546015726 0 0 0
151 1 -8.5215760584376 -0.4523959284110095 -10.812527957971067 0 0 0
162 1 -8.161086424627232 -2.346120894234698 -12.4381673156214 0 0 0
168 1 -6.086516186034837 -1.182250514285748 -11.007836009355714 0 0 0
152 1 -7.057131175048838 -0.304249903773691 -13.132753242532061 0 0 0
893 1 -5.161000847173581 -13.9500944378498 -0.12427732482944442 0 1 0
169 1 -3.756371759401068 -1.892403256961746 -11.15365964491313 0 0 0
42 1 -1.3972860717133386 -2.5684486279385066 -11.489581702816396 0 0 0
1547 1 -12.695251712191228 -14.26422504313053 -5.18737473809807 1 1 0
86 1 -12.132561030808954 -13.044859881418454 -9.621320990083998 0 0 0
1039 1 -13.567439966112921 -13.23237598224952 -7.291533732588276 1 0 0
501 1 -11.219489231479368 -13.978820199978534 -7.5144038492243 0 1 0
87 1 -9.741949062922357 -13.682778385944994 -9.972953531516662 0 0 0
90 1 -9.896032659025758 -11.907761186113321 -8.07936082170296 0 0 0
96 1 -7.511295883884086 -12.687708049639518 -8.418111722577011 0 0 0
122 1 -5.061847039016955 -13.263777816260735 -8.568462849585476 0 0 0
130 1 -3.06530878077786 -12.25879750752156 -7.015568176968511 0 0 0
97 1 -5.523999190897907 -11.548682817035985 -6.850074121492087 0 0 0
123 1 -2.7928732550629594 -14.038837166130207 -8.780179641643972 0 0 0
132 1 -1.4924390018730715 -11.959080523603028 -9.347093717402904 0 0 0
131 1 -0.5072972897715999 -12.99708959129434 -7.328850414887553 0 0 0
1038 1 -12.33602197464219 -11.25194165338599 -7.9730211948370835 1 0 0
53 1 -13.504971772883685 -8.663700462128602 -8.275672311580113 0 0 0
221 1 -10.9955595865639 -9.305790712097494 -8.551359944576076 0 0 0
54 1 -8.670849115470531 -9.954529541038097 -8.952154775341905 0 0 0
98 1 -6.26594502696338 -10.542984211104311 -9.058422627339134 0 0 0
60 1 -6.468196031569482 -8.947891571854338 -7.272438507593072 0 0 0
99 1 -3.963421528230249 -11.346410655867821 -9.106867242695188 0 0 0
105 1 -4.032621557862157 -9.589952286307065 -7.424652746955864 0 0 0
62 1 -5.082573938953818 -8.586634933229368 -9.444188386963752 0 0 0
108 1 -0.33337589472222184 -10.055029502511665 -10.092207669382116 0 0 0
107 1 -2.849689436798249 -9.325634776543321 -9.877672032968373 0 0 0
106 1 -1.7741943488001475 -10.38694221993103 -7.794673284284273 0 0 0
17 1 -12.215751600885172 -6.62587891975123 -8.935413194301638 0 0 0
235 1 -11.269414758141915 -7.476563969775473 -6.842401733995124 0 0 0
18 1 -9.78652534734294 -7.266990396300748 -9.158355312178845 0 0 0
59 1 -8.878102134020168 -8.254534398070424 -7.0646503455743375 0 0 0
25 1 -6.187594135075321 -5.853376568190869 -10.024808166316081 0 0 0
61 1 -7.449026103038757 -7.890158451061073 -9.3190247107054 0 0 0
23 1 -7.585035547220839 -6.263304361738156 -7.692632263845768 0 0 0
67 1 -5.320448286812638 -6.939229454969926 -7.789739321102922 0 0 0
68 1 -2.9395278344341005 -7.595292441015667 -7.994133829619795 0 0 0
114 1 -0.4668095861952182 -8.379569029265419 -8.215303346552627 0 0 0
960 1 -13.214395816990711 -3.8589749298623826 -9.416235612689366 1 0 0
16 1 -12.471509246839833 -4.8206165408093185 -7.278150167357621 0 0 0
22 1 -10.101760121446134 -5.539758599919185 -7.453069983209564 0 0 0
155 1 -10.951921645786152 -4.573838617143409 -9.592854586222112 0 0 0
159 1 -8.66431283398768 -3.653465664293357 -8.01440930223368 0 0 0
24 1 -8.671917406476387 -5.296701807649539 -9.701660438640628 0 0 0
158 1 -11.183656551647982 -2.9136134963744365 -7.917340116202269 0 0 0
30 1 -6.350763510406281 -4.091975305800169 -8.267615123569875 0 0 0
31 1 -4.0614171432597335 -4.934193925375213 -8.444507914973704 0 0 0
38 1 -4.094231974437273 -3.278781156947714 -6.71003678446669 0 0 0
40 1 -2.821149770511809 -2.9634469250700537 -9.012847531422766 0 0 0
77 1 -1.6629141563886183 -5.707813662527313 -8.630850459625934 0 0 0
41 1 -0.3559097271508911 -3.668974871405366 -9.116196691530302 0 0 0
39 1 -1.7557408096144194 -3.9878607805384743 -6.897547892753028 0 0 0
147 1 -12.036310417970608 -1.907340938696482 -10.043636250166884 0 0 0
626 1 -12.40188510440243 -0.12946905209804527 -8.338887626205153 0 0 0
959 1 -13.641811826733205 -2.1309656973315985 -7.76811159961106 1 0 0
160 1 -9.641612046912838 -2.6775780758146013 -10.140675169601831 0 0 0
150 1 -10.033131669800605 -0.9211216910624493 -8.508038331291903 0 0 0
166 1 -7.5732533051000726 -1.5416025657844976 -8.588581447981685 0 0 0
174 1 -5.414577694044823 -0.48638768183989534 -7.12512842531223 0 0 0
167 1 -5.22972714588801 -2.0394317960418533 -8.919583530037272 0 0 0
175 1 -2.987377857506763 -1.1515864974488732 -7.330118149546581 0 0 0
176 1 -3.9584509371126018 -0.22113208532308803 -9.464091522867392 0 0 0
177 1 -1.5290237428209696 -0.8672314940927901 -9.729124265351043 0 0 0
47 1 -0.6276909607177092 -1.8702233269974258 -7.42774289843852 0 0 0
1043 1 -13.762792599474865 -11.636050751051641 -5.56825827341514 1 0 0
201 1 -11.403070982375516 -12.195781840916382 -5.775140178429148 0 0 0
200 1 -9.080970510999826 -13.033417156629888 -6.007935786396638 0 0 0
671 1 -10.478956353166385 -13.23918810392913 -3.760309250875398 0 1 0
202 1 -8.19158604274735 -13.898150354011918 -4.027499531890664 0 0 0
120 1 -6.681215625441453 -13.59676280284839 -6.233088047283389 0 0 0
184 1 -6.816805746565983 -11.814996614515358 -4.506626307541911 0 0 0
128 1 -4.654932253479476 -12.583975059123318 -4.707354348697917 0 0 0
129 1 -2.169010927082672 -13.24131460984601 -4.882474852553525 0 0 0
219 1 -12.575661066129836 -9.523232489995879 -6.232402646024156 0 0 0
220 1 -11.632673473046445 -10.596677576802861 -4.070260277914953 0 0 0
178 1 -0.11863129774559766 -0.5367116505867973 -12.076160419131146 0 0 0
197 1 -9.271496727357942 -11.244154119409982 -4.37652251170287 0 0 0
218 1 -10.125385766524412 -10.184427933774899 -6.402751806979882 0 0 0
196 1 -7.881770645235457 -10.960668235356941 -6.7509702203292346 0 0 0
213 1 -8.081761329616475 -9.21241630829546 -4.932523736658052 0 0 0
103 1 -5.641693400734297 -9.868105620870924 -5.067838852759076 0 0 0
104 1 -3.1927680562010465 -10.546113535295198 -5.223993834810319 0 0 0
110 1 -3.6382343706899736 -8.942191440602194 -3.4262854527483473 0 0 0
141 1 -0.8880080229212535 -11.346015223508342 -5.579759682772384 0 0 0
111 1 -1.2500488958449587 -9.603995628308517 -3.727608085993152 0 0 0
1008 1 -13.658878617685193 -6.859195282131952 -6.639211731537291 1 0 0
236 1 -12.779342273717424 -7.839756624741781 -4.417943943902106 0 0 0
232 1 -11.48827675825908 -5.869660805363829 -5.201321987991234 0 0 0
214 1 -10.38916913614752 -8.629679865381679 -4.723617769096014 0 0 0
231 1 -9.125387958530252 -6.5517744850775435 -5.34533577203214 0 0 0
65 1 -6.744790052788809 -7.224022516092514 -5.646120605540702 0 0 0
209 1 -5.860010121218396 -8.17675985018719 -3.4454989590685443 0 0 0
66 1 -4.414021020168846 -7.975917651681171 -5.556098928280343 0 0 0
73 1 -4.583407474238621 -6.216271589091788 -3.9011187499987425 0 0 0
75 1 -3.1589637432838362 -6.006479163656559 -6.272922912169149 0 0 0
112 1 -1.9968055055966705 -8.569744362829791 -5.802172367588452 0 0 0
76 1 -0.6605671389641259 -6.7073829154656 -6.578092185690401 0 0 0
74 1 -2.207183446101979 -6.895889209047121 -4.142155477950238 0 0 0
1013 1 -13.982290284455512 -5.075663510786301 -4.884120769805222 1 0 0
11 1 -12.634804995315662 -3.196787968381571 -5.5385133645782405 0 0 0
12 1 -11.923090366539194 -4.228725281746549 -3.436523815309233 0 0 0
10 1 -10.30037670194659 -3.9271010178893473 -5.736238357854823 0 0 0
228 1 -9.2840740116024 -4.93253894530546 -3.563870146871107 0 0 0
227 1 -6.97038241983286 -5.495820052952167 -3.84587956700876 0 0 0
28 1 -7.913105053754667 -4.412534608352681 -5.896471738123827 0 0 0
36 1 -5.67806896719493 -3.4393000178243742 -4.374115024791047 0 0 0
29 1 -5.47652539609294 -5.138194947266609 -6.042080820167823 0 0 0
37 1 -3.313403488899853 -4.2896422426565195 -4.515185107471314 0 0 0
82 1 -0.9322500798137856 -5.030718618569949 -4.73461737923283 0 0 0
140 1 -12.853010068400785 -1.3447873050782082 -3.8786596766211368 0 0 0
965 1 -13.79951216436168 -0.377393398734414 -6.043509704295185 1 0 0
138 1 -11.481767131274776 -1.1424374391268675 -6.2332374756234845 0 0 0
164 1 -9.15689304332177 -1.8208325672239276 -6.243171272358782 0 0 0
7 1 -10.578414234714833 -2.226976350341051 -3.9500422289313804 0 0 0
611 1 -9.218094683209447 -0.10032943446547904 -4.599040593002137 0 0 0
6 1 -8.204748626423509 -2.814603542697009 -4.178433046484923 0 0 0
165 1 -6.626071371021886 -2.5381255849552247 -6.475974419235516 0 0 0
172 1 -6.797236768592167 -0.8416021370868787 -4.718015874653174 0 0 0
173 1 -4.434307543886284 -1.440010640285843 -5.038489567518363 0 0 0
45 1 -2.105785360144317 -2.265350230692853 -5.165470469396054 0 0 0
179 1 -2.4247040979197116 -0.538629193580709 -3.443983890411735 0 0 0
659 1 -0.7870452727760036 -0.270345697967036 -5.760412179141261 0 0 0
1549 1 -12.917535617322379 -12.566987667138513 -3.4035412707278496 1 1 0
669 1 -12.104100049575102 -13.574330132664098 -1.2035573265369095 0 1 0
199 1 -10.9095547591124 -11.607859090092372 -2.0254449484056476 0 0 0
198 1 -8.394330554535204 -12.224740589020755 -2.226327714029317 0 0 0
180 1 -6.095323484814406 -12.957345367353774 -2.378713831506081 0 0 0
518 1 -6.189440429471819 -0.2362373990216824 -0.9139876204781867 0 0 0
183 1 -3.786491527468172 -13.51711948742625 -2.455236913057769 0 0 0
182 1 -4.013371671159295 -11.87977355304636 -0.697349739761945 0 0 0
4 1 -7.529519058952564 -2.13337542677516 -0.2901950945439662 0 0 0
146 1 -1.5311803958827195 -12.708829642091066 -0.9570027609046541 0 0 0
135 1 -2.376288674883501 -11.627513140505624 -3.0280268757768365 0 0 0
223 1 -5.010375690906075 -2.930914184558219 -0.43891981264934365 0 0 0
1041 1 -13.290803695243115 -10.927418804062974 -1.6597284342946814 1 0 0
216 1 -11.723163822867575 -9.011463263184044 -2.2758921802270233 0 0 0
215 1 -9.53245224893982 -9.711743191255323 -2.474106669819067 0 0 0
195 1 -8.555996498644348 -10.625865922880793 -0.3691020744535862 0 0 0
194 1 -6.331135462818886 -11.188268576133346 -0.6894282627952535 0 0 0
193 1 -7.1372130418280895 -10.217171591723766 -2.749137086546421 0 0 0
191 1 -4.988459268914577 -9.231953927604739 -1.0339414787585923 0 0 0
192 1 -4.653166537547749 -10.876746350014365 -2.843058816019541 0 0 0
143 1 -0.2284451369168714 -10.55695945301192 -1.7507175687235694 0 0 0
190 1 -2.575425873340407 -9.815944871282205 -1.387394872772715 0 0 0
234 1 -12.125341334485412 -7.265481333618313 -0.6073010763865554 0 0 0
1030 1 -13.126503712894106 -6.1889312836821375 -2.598791804762424 1 0 0
48 1 -1.3738082228791857 -1.5317308912351049 -1.248095202776586 0 0 0
233 1 -10.727726588071814 -6.937152326966544 -3.0734180955544605 0 0 0
212 1 -9.76711579301211 -7.927223139717132 -0.903795492081926 0 0 0
211 1 -7.320543347081844 -8.518312575050635 -1.0619881558225615 0 0 0
229 1 -8.44061216023999 -5.848100981064791 -1.3649493498964222 0 0 0
210 1 -8.220866786652996 -7.5663439729664095 -3.1959800374036647 0 0 0
208 1 -6.171135691625182 -6.514448803870471 -1.6606747694172466 0 0 0
207 1 -3.769851356481473 -7.247536550882254 -1.7584046910162918 0 0 0
951 1 -13.93841626592761 -4.608460299120175 -13.23424746115201 1 0 0
205 1 -1.500247280011287 -6.301449357988138 -0.11213850686694293 0 0 0
115 1 -1.3826292201019683 -7.920381015728262 -1.9892327000139751 0 0 0
1011 1 -13.197588195940066 -4.519127816766968 -0.9974290431454342 1 0 0
230 1 -10.796725765182806 -5.261563063806667 -1.198022251346318 0 0 0
8 1 -9.627794168884892 -3.2355216778501 -1.68493122632899 0 0 0
225 1 -7.197953130481121 -3.7762368419099044 -2.02958288665069 0 0 0
139 1 -0.021805222995356033 -12.340684128238859 -3.3992008052623124 0 0 0
224 1 -4.758797751647895 -4.564270131948724 -2.3207331239307223 0 0 0
222 1 -2.7020773363334882 -3.5092023750973205 -0.5165912745152816 0 0 0
44 1 -1.1324854247914313 -3.168538406280767 -2.961940118475896 0 0 0
84 1 -0.26934755534880495 -4.132389254765602 -0.8414982892046297 0 0 0
80 1 -2.442303372617884 -5.208884708478964 -2.344377752269576 0 0 0
9 1 -11.96013531952779 -2.403745972395665 -1.5831561513431822 0 0 0
1 1 -3.8137975916049385 -0.9635847720472075 -1.1167064028623201 0 0 0
136 1 -10.783650375733798 -0.43798681913575166 -2.282241545757689 0 0 0
3 1 -8.409939855721767 -1.2104738417022674 -2.36867650872939 0 0 0
185 1 -7.576626091513148 -13.346943955426006 -0.04445294031025249 0 0 0
2 1 -5.842421765754009 -1.7980894018089337 -2.599464923219305 0 0 0
154 1 -11.65828879295558 -5.341960105517689 -13.372020890626548 0 0 0
381 1 -12.43552197156888 -11.808041714098389 0.41554988410558735 0 0 0
391 1 -13.641493392760786 -13.855514787554648 1.0862385273119521 0 0 0
387 1 -13.700517822764349 -12.200425903935347 2.829789319068542 0 0 0
382 1 -11.320091918568266 -12.84619936923454 2.5064401232376134 0 0 0
378 1 -9.012406179451334 -13.519870135253623 2.5348916009984066 0 0 0
186 1 -9.8663119240539 -12.612393041485285 0.09102908663605547 0 0 0
377 1 -7.718066136887635 -11.5184551054444 1.7315244917110153 0 0 0
393 1 -3.024165187554912 -0.6577705338380415 11.238621485933987 0 0 0
339 1 -14.069264422597328 -4.130581969925526 5.195481371257852 0 0 0
375 1 -5.368194270529489 -12.12351834132481 1.639747077949453 0 0 0
453 1 -2.941517211051039 -12.854402803544707 1.3400659858096144 0 0 0
1272 1 -0.6937592343919778 -13.479921926019225 1.1948385549543072 0 0 0
1278 1 -0.7668480061366658 -11.814769049396771 3.028192067568977 0 0 0
171 1 -2.169256771938512 -1.4849425151945397 13.419312047830829 0 0 -1
385 1 -12.532106401771298 -10.243962208237892 2.1982229852896182 0 0 0
380 1 -10.10685016881251 -10.861413813917647 1.9374379778778774 0 0 0
356 1 -8.770035722040255 -8.856486927028516 1.4397745347758004 0 0 0
326 1 -12.932052959504936 -13.741419745476644 13.385090710732229 0 0 0
349 1 -6.444046535651042 -9.52132510516925 1.1490906314224159 0 0 0
342 1 -4.033027497141701 -10.223351920956395 1.0777088304423668 0 0 0
374 1 -3.17073449696837 -11.179325221014029 3.1945827304763945 0 0 0
343 1 -5.58447850441158 -10.450753014591925 3.2831771475429967 0 0 0
181 1 -1.714910067055179 -10.876318247282114 0.7049440140724617 0 0 0
1276 1 -1.9253031543098391 -9.06587874791323 2.4773934932988197 0 0 0
189 1 -0.4404706559472267 -8.865629707657803 0.16843704264461756 0 0 0
373 1 -13.570410838904497 -7.517328464678529 1.8501875061157556 0 0 0
318 1 -11.477938923525349 -6.469445952697903 3.28826892032264 0 0 0
390 1 -11.178884930009879 -8.256072211322063 1.614964647896402 0 0 0
364 1 -9.918356193759415 -6.248601549142968 0.9146275111811928 0 0 0
307 1 -9.13759831631285 -7.223869165115309 3.176786240692415 0 0 0
355 1 -7.591272306491262 -6.8899032721908835 0.8506927125847206 0 0 0
296 1 -6.678340799538208 -7.795339279144388 2.9260824629169484 0 0 0
458 1 -4.318018121543643 -8.507583012633525 2.89167357863845 0 0 0
348 1 -5.132019537555392 -7.389128278414011 0.5740824873060859 0 0 0
465 1 -3.15564998389306 -6.525213900440709 2.198309569355784 0 0 0
294 1 -5.542941388015958 -5.794627688228832 2.4066778016315773 0 0 0
341 1 -2.8013538114936605 -8.213083811382297 0.2855539156895741 0 0 0
1310 1 -0.6289370872283069 -7.138174726791247 1.9363019867199611 0 0 0
365 1 -12.317580039117725 -5.572868403212082 1.153476706730686 0 0 0
328 1 -12.805052979883046 -3.721921023227422 2.912983661072026 0 0 0
1399 1 -13.549876476612447 -2.76740567759669 0.7535290540037298 1 0 0
5 1 -11.159265748302856 -3.5403824210479744 0.5311930404399501 0 0 0
317 1 -10.337151443910889 -4.395327529332331 2.718700330672444 0 0 0
226 1 -8.727130366330659 -4.1243490032300905 0.43505884663706595 0 0 0
305 1 -6.38973857617755 -4.805038943112262 0.1436782406142676 0 0 0
306 1 -7.987650842015919 -5.080498059627855 2.5304061809901626 0 0 0
250 1 -6.609696760524148 -3.1778651748687015 2.0438301220709345 0 0 0
304 1 -4.30032056842105 -3.906560421584084 1.723568381197337 0 0 0
291 1 -1.8462124642277864 -4.473529226966187 1.5204342715990915 0 0 0
1296 1 -13.353722877991338 -9.163419270786665 0.07949402467462363 1 0 0
1219 1 -13.855693270506906 -1.1068746701344985 2.4024820589326854 1 0 0
338 1 -11.399129834687278 -1.8810387692802433 2.3155413780590397 0 0 0
265 1 -8.959446140881393 -2.3890719879868243 2.0902361305714923 0 0 0
264 1 -7.663946209483361 -0.4137968937558032 1.5083152788675491 0 0 0
404 1 -4.359956578972604 -2.6394400137605682 11.91458881102583 0 0 0
249 1 -5.402801884799922 -1.141481475834956 1.3166919496347589 0 0 0
392 1 -2.9712644336267022 -1.7660703415258396 1.1818509798781172 0 0 0
238 1 -1.958319393215442 -2.820609293331575 3.297518050896457 0 0 0
237 1 -0.7471981052685042 -0.73818077400772 2.569957287379026 0 0 0
1347 1 -0.5700423478357095 -2.3995312671005316 0.8027052593612929 0 0 0
360 1 -12.92102171082761 -13.181126751502424 4.990242062651202 0 0 0
370 1 -13.13393456432633 -11.375083918591693 6.759546573281263 0 0 0
351 1 -9.293924045288822 -11.85162781953424 4.251335484030307 0 0 0
353 1 -10.57277558986736 -13.989092360519145 4.862985789253944 0 0 0
361 1 -10.834725339369825 -12.241707372814481 6.5904173080113 0 0 0
354 1 -8.283935598630867 -12.85156139103634 6.286066450289649 0 0 0
344 1 -6.933548114619268 -12.435962009434991 4.019506028762358 0 0 0
346 1 -5.922865056691874 -13.448181921514118 6.123528183925146 0 0 0
457 1 -4.461962560941426 -13.090446082906771 3.7146759715151383 0 0 0
345 1 -4.587361252978896 -11.407990534995468 5.462845914432165 0 0 0
455 1 -3.5111151902389945 -14.143686501012178 6.0066133417841705 0 0 0
894 1 -2.138927969749247 -13.805838169988943 3.583691384301865 0 1 0
456 1 -2.261487165061407 -12.155782986491397 5.267521770126024 0 0 0
368 1 -13.904936343191167 -10.518319254196326 4.534285747016934 0 0 0
322 1 -11.73753705626558 -9.505302836702931 6.0911093570061965 0 0 0
358 1 -11.604283565299344 -11.201919822335626 4.324290424848996 0 0 0
357 1 -10.307939205581258 -9.263748492058347 3.751676060577239 0 0 0
359 1 -9.479243010419554 -10.06397133763037 5.921995891137485 0 0 0
350 1 -7.899409832285941 -9.949870891859657 3.486547056241662 0 0 0
352 1 -7.130897096860602 -10.693017145186143 5.844774072198415 0 0 0
298 1 -5.8076591691680335 -8.806017558183587 5.01246950910933 0 0 0
463 1 -3.3290763919108475 -9.477093888796333 4.892692751300775 0 0 0
1275 1 -0.8639298538555753 -10.084507483814892 4.71038989521314 0 0 0
366 1 -12.740043479226768 -8.53583018265553 3.921258537391605 0 0 0
331 1 -12.961387719533905 -6.788145614012154 5.6245939104247675 0 0 0
329 1 -13.798550212392378 -5.931304881679974 3.503192541017288 0 0 0
320 1 -10.530331882778093 -7.434613767496638 5.443223387952575 0 0 0
309 1 -8.195177497372171 -8.20064303416613 5.274387305503691 0 0 0
308 1 -6.96197248821242 -6.074116072803713 4.646584523439813 0 0 0
254 1 -6.188840189076551 -7.054344369968957 6.765649775887631 0 0 0
297 1 -4.618448591972195 -6.669311944328842 4.563948594269718 0 0 0
242 1 -3.7111525376953587 -7.825815586104517 6.5757251751304935 0 0 0
1297 1 -1.2814657577011577 -8.348247172558066 6.343909849823255 0 0 0
464 1 -2.19799170580996 -7.347150966927999 4.213152049876161 0 0 0
241 1 -2.400020560387018 -5.718788380936056 5.984885496341775 0 0 0
407 1 -6.684266211756035 -1.9953062773203403 12.120452008232515 0 0 0
330 1 -11.703175620132612 -4.672000318259274 5.021041480814773 0 0 0
319 1 -9.441698633876992 -5.392609093385742 4.733997755588145 0 0 0
279 1 -9.549548276205694 -3.8041889807495917 6.583155558225361 0 0 0
252 1 -8.06122679642218 -3.4131268773724095 4.251455441208005 0 0 0
268 1 -7.284854381541326 -4.349316379560102 6.4143089850539425 0 0 0
240 1 -5.615931249316736 -4.105749403555022 4.132328388538983 0 0 0
253 1 -4.887547464027319 -5.045535893465619 6.224400878770933 0 0 0
295 1 -3.2127080530354526 -4.8109317321103475 3.869268632027488 0 0 0
239 1 -3.5146602197535035 -3.092377051409782 5.675265492393297 0 0 0
1299 1 -0.883887260690905 -5.555079175454095 3.7424669099991057 0 0 0
472 1 -0.9754979804689992 -3.830870682618201 5.520434197452484 0 0 0
278 1 -12.964743472963118 -1.9624750437843854 4.55740344131641 0 0 0
442 1 -13.103014973837723 -0.24378143426634225 6.301358555744503 0 0 0
898 1 -6.566456112853562 -14.221392903698312 2.186809323853293 0 1 0
267 1 -10.577993816168366 -2.6748031586625114 4.511194814264897 0 0 0
277 1 -9.212279772328694 -0.7732976075239435 3.9152667873317597 0 0 0
435 1 -10.615436070248672 -1.0184078675994641 6.2532924633459 0 0 0
266 1 -6.7325095926941 -1.4223389091598175 3.662449886769206 0 0 0
427 1 -8.326745210786063 -1.8635992273561293 6.017849303275007 0 0 0
418 1 -5.944695399856931 -2.4191132578861048 5.809447743241304 0 0 0
251 1 -4.340581925516382 -2.09786523425503 3.4904221669562148 0 0 0
417 1 -4.511570298402308 -0.3922207775215121 5.164307791086678 0 0 0
58 1 -5.778658502897763 -9.475137928559256 13.447311363713766 0 0 -1
1264 1 -2.2263260091745813 -1.1592347779055743 5.0085025998372075 0 0 0
709 1 -9.890852701699067 -1.4218830030317235 0.026148904850121113 0 0 0
324 1 -12.161423651026757 -12.481210724583956 8.923097036472154 0 0 0
313 1 -9.79359135756431 -13.148388081134742 8.714539428429504 0 0 0
302 1 -7.472958807575303 -13.873354103337991 8.545299394404964 0 0 0
300 1 -6.130071083965294 -11.870667256118203 8.001785784780743 0 0 0
261 1 -7.652664064061303 -12.138439673549843 10.248440807519081 0 0 0
347 1 -3.7380365148397985 -12.473265622854486 7.687805517948441 0 0 0
312 1 -5.266005935181061 -12.948994882875851 9.99004497328712 0 0 0
303 1 -2.7483348527574094 -13.583882787255824 9.793182371742443 0 0 0
460 1 -0.3992620234273385 -14.152046348509286 9.621453240916502 0 0 0
454 1 -1.2530920337449487 -13.18839544386506 7.535803111629875 0 0 0
301 1 -1.5036738015753226 -11.535194922328987 9.193660185836787 0 0 0
334 1 -13.240583654285699 -9.68711628141814 8.433581093406445 0 0 0
323 1 -10.712933921691093 -10.58349440948409 8.229521092791579 0 0 0
271 1 -8.834913473244953 -9.409496109693213 9.717273319559943 0 0 0
283 1 -11.160672570341317 -8.742440588599813 9.888037534161207 0 0 0
311 1 -8.527443692412483 -11.157896399806082 8.186045356251373 0 0 0
259 1 -6.396155749064971 -10.074860685890261 9.596027388604718 0 0 0
310 1 -7.407902452302782 -9.107261400312115 7.4522528600112175 0 0 0
244 1 -3.970644621007928 -10.897238187530137 9.443409983174192 0 0 0
299 1 -5.021866157033623 -9.683583867306066 7.258535733391444 0 0 0
1304 1 -0.17412506488895296 -11.188420220844103 6.708149464279071 0 0 0
243 1 -2.786685299095261 -8.758601156835685 8.84558370294559 0 0 0
462 1 -2.4835009198725047 -10.370343093706158 7.116016452542553 0 0 0
470 1 -0.36629724594260615 -9.519959961198715 8.585744003295801 0 0 0
332 1 -12.03673310226711 -7.7558737478468975 7.78013098883784 0 0 0
446 1 -12.319478705224915 -6.0234937638229376 9.555756055975696 0 0 0
1183 1 -13.55801031582521 -8.033287173457513 10.270106107865878 1 0 0
321 1 -9.689023338003416 -8.496879943502275 7.718399755298353 0 0 0
281 1 -9.886441151862345 -6.749218418977459 9.311776904866068 0 0 0
280 1 -10.805021008599295 -5.732963973987067 7.143722471482548 0 0 0
269 1 -8.467531548208077 -6.356439822781636 6.985877628716814 0 0 0
270 1 -7.501126633391757 -7.392631329826519 9.13497947492823 0 0 0
258 1 -5.089683327894139 -8.006806310196524 8.919708039772022 0 0 0
420 1 -3.9298321721740006 -6.015858065953447 8.308818989722184 0 0 0
471 1 -1.588829264614425 -6.665661106892963 8.276387285521238 0 0 0
289 1 -12.014842230044353 -3.017496124667474 6.791267283161162 0 0 0
290 1 -13.157569874603997 -5.014100123342468 7.334015781058348 0 0 0
451 1 -13.461171878956248 -3.2076471680017047 9.185603633831846 0 0 0
444 1 -11.069607286135518 -4.063372834507369 8.94250840946097 0 0 0
437 1 -8.657263161549247 -4.63088560503949 8.742135096833614 0 0 0
429 1 -6.313060066922607 -5.398767765221164 8.548849584100964 0 0 0
438 1 -6.533989765673003 -3.7065833568165107 10.359371987870087 0 0 0
428 1 -4.925641224127503 -3.3875169352363326 7.899247173922543 0 0 0
430 1 -4.097201590907151 -4.305620152408279 10.065373444816778 0 0 0
257 1 -0.29794669712984323 -4.753897798115695 7.611628118047065 0 0 0
419 1 -2.5431445765700342 -4.027886997113045 7.794826811685084 0 0 0
421 1 -1.7173218889219175 -4.87214284080153 9.908493669312477 0 0 0
293 1 -0.5046368638252208 -2.8303681495567954 9.139850959554227 0 0 0
450 1 -12.137314308415252 -1.2805707238802064 8.61202142720774 0 0 0
443 1 -9.793907911115994 -2.054669579133593 8.238790268229117 0 0 0
416 1 -3.1714294641156293 -0.16987986176903824 2.7505098154689804 0 0 0
436 1 -7.401769904288405 -2.6471659419882307 8.237989380818014 0 0 0
401 1 -6.086653659246226 -0.6812009672471806 7.603403912082154 0 0 0
406 1 -7.56821031469467 -1.0119226116900588 9.936690836058133 0 0 0
403 1 -5.183582506389913 -1.6727945105801343 9.638734502557668 0 0 0
396 1 -3.8522598237158423 -1.3185782095709992 7.294030136066258 0 0 0
398 1 -2.822945209370422 -2.275012166300405 9.436841270170532 0 0 0
397 1 -1.573442339490203 -0.34901515182873055 8.819442460339925 0 0 0
1812 1 -1.4409304308515214 -2.0671863020335906 7.040347394314384 0 0 0
337 1 -13.643241983837479 -12.723507152587258 11.273012365530512 0 0 0
263 1 -11.563745950958342 -11.726416623561672 12.72936593311567 0 0 0
363 1 -11.34312060766169 -13.45501779550999 10.930810531167257 0 0 0
744 1 -8.908947467509039 -14.073076226113063 10.801911474384355 0 1 0
316 1 -9.232128791640429 -12.454390590089377 12.627678984223557 0 0 0
314 1 -6.826460114374283 -13.024974402345775 12.429447451839355 0 0 0
248 1 -4.403150199789515 -13.653045344308813 12.09521451761028 0 0 0
246 1 -2.9846321690716646 -11.820835280552469 11.554666923423639 0 0 0
468 1 -0.6670050518385615 -12.382836290024203 11.315487239149839 0 0 0
275 1 -14.158240307894543 -11.042462756574214 12.96221333762448 0 0 0
336 1 -12.518659648738844 -10.622617214332514 10.525842829074094 0 0 0
273 1 -12.683057673862107 -9.100390128978944 12.351505033829682 0 0 0
325 1 -10.067441321578752 -11.442736752901853 10.485204914443475 0 0 0
272 1 -10.273828590612618 -9.837628434599814 12.174488613050414 0 0 0
274 1 -7.915049584007363 -10.448502326427306 11.877782440511105 0 0 0
424 1 -3.2446965783656108 -9.986213201353667 13.276822574324157 0 0 0
262 1 -5.5422612304329775 -10.97107277443749 11.661423190747861 0 0 0
260 1 -4.259248619202086 -8.99676273370839 11.082087270679722 0 0 0
399 1 -0.6819247950004463 -1.2712896666152211 11.089807934707203 0 0 0