LAMMPS data file via write_data, version 29 Sep 2021, timestep = 0

1861 atoms
3 atom types

-14.38435680406091 14.38435680406091 xlo xhi
-14.103122762740353 14.103122762740353 ylo yhi
-13.44059445179676 13.44059445179676 zlo zhi

Masses

1 55.847
2 1.008
3 1.008

Atoms # atomic

350 1 -12.47867543145758 -12.330373833437932 -12.629503137878812 0 0 1
68 1 -10.453766391942734 -12.056721934009978 -11.103922322074334 0 0 0
1163 1 -0.12935403938872625 -3.789269481505464 -12.573088662030706 0 0 0
65 1 -8.44627721774738 -13.534495253095162 -11.457337398975518 0 0 0
108 1 -6.354728586047509 -12.979598967831155 -12.4803735385365 0 0 0
99 1 -6.46506490962782 -11.777473883122255 -10.468923592927132 0 0 0
98 1 -4.464769159997239 -13.597955607263657 -10.830425357402307 0 0 0
148 1 -2.150075320254741 -12.96900860889071 -11.851773981050448 0 0 0
1493 1 -0.6140578718758647 -13.725066411778512 -10.226169922802232 0 1 0
1011 1 -0.43346925106964207 -11.277787412036538 -10.761750973405778 0 0 0
49 1 -12.652690765480639 -10.62502732957465 -10.5823532258094 0 0 0
40 1 -12.545004684642343 -10.122027951637573 -13.095586498039847 0 0 0
42 1 -10.439276765244141 -9.710411345219008 -11.663571482675458 0 0 0
66 1 -8.289161000596094 -11.146531188934974 -12.12919562931594 0 0 0
100 1 -6.4443723676559275 -9.388480757584777 -11.14426245001018 0 0 0
422 1 -6.105504345693788 -10.622409557082744 -13.27192435780106 0 0 1
424 1 -8.132007780338965 -8.732743809136416 -12.78697243337878 0 0 1
161 1 -4.334255657741437 -11.211565473038824 -11.434347318919821 0 0 0
19 1 -4.231415657866949 -8.621622332102621 -12.111256411297713 0 0 0
149 1 -2.1611541134166075 -10.59205325906867 -12.383078180803873 0 0 0
150 1 -2.5444159791780603 -9.17930861911183 -10.391218637248354 0 0 0
193 1 -0.3744143912245086 -8.843428009829971 -11.208581255311106 0 0 0
50 1 -12.574293852771056 -8.382607477358228 -11.353602218842795 0 0 0
34 1 -12.494896942385907 -6.059326912642053 -11.791896045111342 0 0 0
426 1 -10.365736947515977 -7.221893662914516 -12.249034421801905 0 0 1
35 1 -10.504955549656128 -5.704624011210392 -10.25569488837378 0 0 0
59 1 -8.465208762222538 -7.49382148024293 -10.74508866134513 0 0 0
54 1 -6.4360253397044 -6.879563948491726 -11.6830570171307 0 0 0
508 1 -5.715520354477315 -2.0529155196286677 -1.7803659704726513 0 0 0
18 1 -4.340538773662832 -6.2421351353620365 -12.727870041759425 0 0 0
151 1 -2.4701005776716958 -6.655709755810809 -11.0158101689017 0 0 0
237 1 -1.9947027352499642 -8.18717247066356 -13.115531730708419 0 0 1
7 1 -0.12235771851839417 -6.311179379189835 -11.890948736987767 0 0 0
36 1 -12.472703254071035 -3.711324492444776 -12.403134785555086 0 0 0
53 1 -10.18185911667905 -4.667474691901786 -12.761383101172541 0 0 0
116 1 -10.557416067347141 -3.1063114590872196 -10.932759426836048 0 0 0
61 1 -8.444824846042511 -5.008230647180424 -11.333329571945264 0 0 0
451 1 -6.273114570312805 -4.330567945023789 -12.313219472439888 0 0 1
52 1 -6.479778984884301 -3.104901598860634 -10.157697199364971 0 0 0
17 1 -4.495952319543832 -4.973045528010175 -10.598464950228838 0 0 0
450 1 -4.01485946029797 -3.6894426411176084 -13.362926800493636 0 0 1
6 1 -2.411291933178685 -4.400569182860702 -11.616429023898819 0 0 0
425 1 -7.994699451738292 -6.207592402905754 -13.323169388825416 0 0 1
642 1 -12.218399651272286 -1.5820970084070947 -12.87280160744097 0 0 0
33 1 -12.620638697100494 -1.7949107234037118 -10.353074874421596 0 0 0
654 1 -10.386688645555186 -0.7483399084471216 -11.550597914436668 0 0 0
881 1 -8.22245719997262 -0.10906302350798214 -12.5848039698216 0 0 1
883 1 -6.225125367858073 -1.8935882041473207 -12.977766305282612 0 0 1
650 1 -8.333691212356632 -2.5690758935516325 -11.832666886192934 0 0 0
671 1 -6.422903367896529 -0.7550131221315866 -10.88322570261627 0 0 0
16 1 -4.259987674831125 -2.533366192770961 -11.350181835064715 0 0 0
260 1 -6.124487264813517 -9.401603710014095 -0.07864451048832954 0 0 0
14 1 -0.1501170201013089 -0.2926457999598675 -11.210699169815317 0 0 0
5 1 -0.38172418483942216 -2.6385096516920754 -10.42347248078353 0 0 0
38 1 -2.0384168538832714 -1.9293721297232302 -12.093345565277858 0 0 0
37 1 -2.374828059500933 -0.6882697170691099 -10.08179804224301 0 0 0
87 1 -12.606929949093514 -12.959854344205375 -10.01647140817506 0 0 0
88 1 -12.953241743931098 -13.873054867601553 -7.425125634407872 0 0 0
89 1 -12.979609004163448 -11.468168180258067 -8.085517927641579 0 0 0
78 1 -10.753325665043604 -13.15175111151375 -8.340104697552587 0 0 0
123 1 -8.996676311747326 -13.554591564762381 -6.826172006429463 0 0 0
67 1 -8.792013468373856 -12.304225173102147 -9.46163268720936 0 0 0
173 1 -6.984260214575656 -12.814778913778142 -7.787457917256543 0 0 0
162 1 -4.844284038926299 -12.35968735220183 -8.738737108348444 0 0 0
206 1 -2.9270173150700938 -12.765176519600564 -7.0145377733348715 0 0 0
1494 1 -0.7636680632498312 -12.328394096963407 -8.165421965120341 0 1 0
205 1 -2.5829078111022348 -11.673687642731608 -9.840395599055944 0 0 0
51 1 -12.830544322481197 -8.99940457079736 -8.689069589624019 0 0 0
110 1 -8.884960651311061 -11.098707950772644 -7.315258492823651 0 0 0
79 1 -10.715603093014652 -10.70004201530509 -8.934514646400316 0 0 0
80 1 -11.075733078034247 -9.392468336164765 -6.985247388144847 0 0 0
71 1 -8.808975410373026 -8.62837792038992 -8.04719730478169 0 0 0
58 1 -8.617391597620415 -9.880288457314256 -10.131515130921597 0 0 0
111 1 -6.861048062126539 -10.38488098567197 -8.393101505202015 0 0 0
163 1 -4.6672323074346025 -9.799360544185806 -9.526252266485267 0 0 0
165 1 -4.817438681106955 -8.498172206296182 -7.30746202469116 0 0 0
207 1 -2.9118651189751414 -10.331664856317683 -7.826908349451214 0 0 0
950 1 -0.6333959391408825 -9.847647778695624 -8.70741763615169 0 0 0
55 1 -12.86525251139198 -6.655777981136256 -9.296683887457284 0 0 0
60 1 -10.535039077182496 -8.195959361720716 -9.632934438955106 0 0 0
69 1 -10.959008724551273 -7.033146599525737 -7.602082258890862 0 0 0
62 1 -8.805840086483244 -6.146638596372792 -8.67601759829482 0 0 0
112 1 -6.7240401987887966 -8.048272288655916 -9.024511150708639 0 0 0
114 1 -7.03601557686992 -6.755524935570118 -6.968354488764594 0 0 0
101 1 -4.5682193598802066 -7.259546439169001 -10.061862175527848 0 0 0
103 1 -4.928450696601235 -6.047301520863986 -8.005553867011292 0 0 0
152 1 -2.7063891399537106 -7.855369822441406 -8.350762652053279 0 0 0
194 1 -0.6150119734072561 -7.420819650786924 -9.240461963545597 0 0 0
196 1 -0.8456841231901446 -6.095275612383146 -7.227389709244214 0 0 0
44 1 -12.943567964441089 -5.276727675890122 -7.1982690315951 0 0 0
43 1 -12.765593560827055 -4.242304213981475 -9.849501897099632 0 0 0
70 1 -10.884935316343444 -4.499565073951455 -8.23605469096686 0 0 0
63 1 -8.806243663579995 -3.7185551856219075 -9.220238769002172 0 0 0
102 1 -6.680796394989336 -5.628276062325657 -9.641583145311845 0 0 0
104 1 -7.015056055662397 -4.253114804690169 -7.674444396068899 0 0 0
15 1 -4.800853609883303 -3.623769952593717 -8.562441621306542 0 0 0
155 1 -3.083784579801854 -4.178189994703535 -6.915874139741125 0 0 0
153 1 -2.707549564262525 -5.469150445418883 -8.839889355065328 0 0 0
195 1 -0.6613961638847279 -4.983909455573649 -9.994549085661049 0 0 0
197 1 -0.8645587717125718 -3.629718702773836 -7.869859854015666 0 0 0
4 1 -2.630573660158122 -3.120770286784241 -9.533405680577172 0 0 0
72 1 -12.895260632778351 -2.793776421624367 -7.752674820596457 0 0 0
482 1 -12.948560847898388 -0.3916863630894962 -8.329673676838233 0 0 0
39 1 -10.782720402603506 -2.1347264786343576 -8.866704409028006 0 0 0
465 1 -9.099159488937067 -2.5115756139918215 -7.10464559994727 0 0 0
657 1 -8.912875034442804 -0.05323817247944085 -7.728870118886032 0 0 0
655 1 -8.592206198880454 -1.3454290854668702 -9.769682989420664 0 0 0
672 1 -6.891721971201276 -1.8697916924682954 -8.124552350052973 0 0 0
685 1 -4.827795117736166 -1.3178600858424048 -9.187786308895983 0 0 0
2 1 -2.8997907390447732 -1.7737531914790132 -7.493534723401103 0 0 0
3 1 -0.6074063701135834 -1.281451972447151 -8.399234182943596 0 0 0
90 1 -13.3961816155998 -12.497564053990654 -5.372777567913932 0 0 0
135 1 -11.590079192867773 -12.729191020123157 -3.7642110345333233 0 0 0
133 1 -11.15779314175886 -11.923838207959637 -6.4105487060320545 0 0 0
124 1 -9.38899126328712 -12.25714139694792 -4.784841676724826 0 0 0
9 1 -0.03138718857085898 -12.635525369163279 -12.855904545698747 0 0 0
175 1 -7.098646925865695 -11.53689869135802 -5.829017984192508 0 0 0
216 1 -5.131224921763183 -13.372363687278346 -6.128244426166388 0 0 0
218 1 -5.49507371505557 -12.097531645359275 -4.099348982639464 0 0 0
208 1 -3.230194369024918 -11.526523685335487 -5.065413598062891 0 0 0
24 1 -3.259123658736634 -13.971762732845175 -4.46168754755003 0 0 0
599 1 -1.032374342999237 -13.256901143132996 -5.430049658608755 0 1 0
977 1 -1.450198392439452 -11.967308166995938 -3.4689023207261016 0 0 0
91 1 -13.257028234620762 -9.921017359496368 -6.044278675602056 0 0 0
82 1 -11.42656543234167 -10.383143466060655 -4.450537452027394 0 0 0
125 1 -9.211617328419525 -9.808874635969406 -5.289838382659578 0 0 0
177 1 -7.515415801693157 -10.195492725900571 -3.6699962381978235 0 0 0
113 1 -7.070990662407242 -8.99858354024153 -6.224916627146446 0 0 0
164 1 -4.976338896681069 -10.984781214294168 -6.701372018060874 0 0 0
166 1 -5.356316597336388 -9.611937320329886 -4.552930031855112 0 0 0
209 1 -3.211136804662452 -9.161654470320467 -5.70235813664353 0 0 0
11 1 -0.9432590293489032 -8.54600072456689 -6.637672050535109 0 0 0
951 1 -1.0705186489748257 -10.93084706800725 -6.08746856139775 0 0 0
952 1 -1.3375418283783471 -9.658197855897022 -3.9795646300709375 0 0 0
92 1 -13.604843254156282 -8.509315869639432 -3.899036160471704 0 0 0
81 1 -13.320026222328684 -7.567515000200896 -6.623719999867296 0 0 0
93 1 -13.644182648955839 -6.180180381055342 -4.631756421558174 0 0 0
83 1 -11.328731716360428 -7.994157039277536 -5.067667426542464 0 0 0
127 1 -9.168936622867651 -7.289518554235714 -6.04017773005686 0 0 0
129 1 -9.576200149023204 -5.92560800635831 -3.8611307658565117 0 0 0
115 1 -7.462220471035305 -7.86678320944734 -4.276175036761586 0 0 0
210 1 -3.4959642160186135 -7.876245991352922 -3.509852922472767 0 0 0
167 1 -5.302079996225803 -7.271078245541231 -5.285616617788492 0 0 0
154 1 -3.1180662309770906 -6.706266248611727 -6.189943339683056 0 0 0
12 1 -1.2589619046298122 -7.268960977283884 -4.6788059997821065 0 0 0
57 1 -13.319848296594994 -3.7637176086208157 -5.177425472865309 0 0 0
75 1 -11.772480575184169 -4.033501346655484 -3.5607373500200854 0 0 0
73 1 -11.19823901198855 -5.462398306521687 -5.5161414085820315 0 0 0
64 1 -9.030991421249237 -4.804693011542627 -6.496852582146261 0 0 0
117 1 -9.372477656750306 -3.570629658462785 -4.524403909715291 0 0 0
74 1 -11.119684595173155 -3.070548689258656 -6.172398746101437 0 0 0
463 1 -7.232092379024302 -5.4391353019757975 -4.949086878332208 0 0 0
674 1 -7.249542233444538 -2.9874895105424866 -5.5591803057671685 0 0 0
211 1 -3.4748136547972432 -5.310863311152646 -4.275240341038073 0 0 0
105 1 -5.184983544555921 -4.76903928517863 -5.900413018414251 0 0 0
157 1 -5.436347796522833 -3.423358364201251 -4.005718903567546 0 0 0
156 1 -3.2675974387906432 -2.8427528358551974 -4.807009279152158 0 0 0
198 1 -1.2144376956061844 -4.850852739246941 -5.27157880691224 0 0 0
467 1 -13.376497886528806 -1.3736993743938282 -5.646636415851167 0 0 0
495 1 -11.60437873827264 -1.643348262006013 -4.01739881133801 0 0 0
468 1 -11.093848559177458 -0.7353606782356614 -6.7518274691059705 0 0 0
464 1 -9.44600884918359 -1.2092725816639511 -5.0985033966725 0 0 0
587 1 -7.203950579278633 -0.5995877453605765 -6.086502479681188 0 0 0
462 1 -7.563027502428219 -1.599782134638211 -3.458117264472449 0 0 0
686 1 -5.086351663222388 -2.3318025718405977 -6.566946643557256 0 0 0
688 1 -5.3056176906665655 -1.0603754277361794 -4.393506009046709 0 0 0
1 1 -3.1490101226668 -0.46631505521155603 -5.331482200828525 0 0 0
202 1 -1.8195787222363506 -2.018673794770857 -1.1370527440584812 0 0 0
199 1 -1.134830987432876 -2.358219870976562 -5.820013866753199 0 0 0
930 1 -1.310011109158884 -0.876152021024371 -3.7504186763623437 0 0 0
147 1 -14.02764714647637 -11.87952630657232 -0.6889389766225928 0 0 0
143 1 -12.069818154483231 -13.724196795780111 -1.0617424439570673 0 0 0
146 1 -13.79953100488378 -13.353844082064843 -2.7795515676218923 0 0 0
136 1 -11.925877876823066 -11.260493459643953 -1.7393521110553252 0 0 0
183 1 -9.894280057487038 -13.227878596731095 -2.073309733802075 0 0 0
176 1 -7.6902439626399985 -12.620789793432245 -3.1438756666340613 0 0 0
184 1 -8.056719429217324 -13.582053563813627 -0.42074985548700816 0 0 0
31 1 -5.831165626308014 -13.133590005400453 -1.4826134491461662 0 0 0
25 1 -3.6148776811732084 -12.607957503150146 -2.411423538750304 0 0 0
30 1 -1.9371872877517173 -13.132695408431735 -0.7415945733164335 0 0 0
142 1 -13.654568962301994 -10.937408686792743 -3.4153438127355074 0 0 0
144 1 -13.991662900146359 -9.474739827511033 -1.2606202504630701 0 0 0
137 1 -11.810138084313984 -8.936213751431993 -2.3664086868154506 0 0 0
126 1 -9.725119645435932 -10.849151282800035 -2.710432791688646 0 0 0
185 1 -9.926465590770254 -9.3227766207096 -0.6069916530874782 0 0 0
128 1 -9.666948890559098 -8.352300300915081 -3.312031531376908 0 0 0
226 1 -7.9836940324392405 -11.243950683179925 -0.9283885606051285 0 0 0
178 1 -7.904916756862275 -8.874638433424046 -1.625724071170593 0 0 0
28 1 -3.96856243988357 -11.29252173136112 -0.4191462819987706 0 0 0
219 1 -5.806263041929856 -10.836003236996437 -2.103232504686064 0 0 0
26 1 -3.4788555266348986 -10.243164072675665 -2.9055565015297677 0 0 0
212 1 -3.8910080289172466 -8.815241781867549 -1.048084112290418 0 0 0
979 1 -1.655509674838683 -10.728714747276905 -1.2806770854617682 0 0 0
138 1 -12.215894088715979 -7.371290576826776 -0.37466089284720105 0 0 0
94 1 -13.856514241260149 -7.038103124429425 -1.889830189129695 0 0 0
84 1 -11.699612145547515 -6.467381491280475 -2.786740486045691 0 0 0
186 1 -9.925338917502817 -7.0017993279046165 -1.3293572916708971 0 0 0
179 1 -7.749079715976646 -6.466401554142943 -2.244604749710902 0 0 0
221 1 -5.943039890764691 -7.013805587350583 -0.6600983493210446 0 0 0
220 1 -5.665765159065501 -8.43672365210756 -2.538714685409582 0 0 0
168 1 -5.540189053580955 -5.899586583875015 -3.276094624586152 0 0 0
213 1 -3.78962021562589 -6.31573766165202 -1.6991068201983168 0 0 0
20 1 -1.6573676519835878 -8.317260989365618 -1.9964566292182138 0 0 0
21 1 -1.5902555604965123 -5.82562492118117 -2.6356189888632837 0 0 0
139 1 -11.960212697768151 -4.897178705262851 -0.727951095892319 0 0 0
95 1 -13.802995328559113 -4.7294805035975305 -2.4595334506946944 0 0 0
1156 1 -14.148863951159846 -3.1739339552481436 -0.41228258091169856 1 0 0
118 1 -9.762377702493499 -4.4581715884655075 -1.8796192047638236 0 0 0
170 1 -8.082043061035986 -5.165761023374767 -0.2882431641905985 0 0 0
169 1 -7.5517310724873035 -4.006469033943485 -2.8751498261860995 0 0 0
158 1 -5.847029214118541 -4.466867361008958 -1.3148951755832705 0 0 0
201 1 -3.6609744119209076 -3.7770457478822728 -2.2666716986132247 0 0 0
200 1 -1.458770062096404 -3.4367765831832386 -3.3195575200363177 0 0 0
22 1 -1.9029591618355841 -4.394830457223405 -0.6215306659449951 0 0 0
86 1 -11.875624566008556 -2.64248834318129 -1.3192458954485797 0 0 0
499 1 -14.139867899279418 -0.9448610655324146 -0.9332958440142836 0 0 0
506 1 -11.8393736033502 -0.2633755661255748 -2.0234796914564583 0 0 0
85 1 -13.725485040635062 -2.2091872791322658 -2.98921571000848 0 0 0
505 1 -9.830907602027981 -2.140254468604729 -2.421338588423449 0 0 0
507 1 -10.070164658387267 -0.7684311698400812 -0.2917998813231524 0 0 0
511 1 -7.924486199274889 -2.778972828581322 -0.8909607290535657 0 0 0
502 1 -7.900504603238471 -0.3404583443846736 -1.4518566768126746 0 0 0
694 1 -3.5629609461492784 -1.6099431759099971 -2.807688185943327 0 0 0
512 1 -3.905110448295787 -2.544473613331226 -0.09169868006617854 0 0 0
630 1 -3.7316120812690627 -0.2467152166651463 -0.7276876852497249 0 0 0
687 1 -4.995203500336942 -0.026876816915919477 -7.100119677410676 0 0 0
1083 1 -14.17489111122571 -5.761805645129854 -13.404472596683306 1 0 0
174 1 -7.291754473343654 -14.01431643162188 -4.989846742696633 0 0 0
666 1 -4.203106968254463 -0.08619412605156107 -11.794130922449707 0 0 0
328 1 -12.307713725127705 -12.339291228457657 1.0250197442024565 0 0 0
337 1 -10.546669406329396 -12.913877001337811 2.594236790085331 0 0 0
885 1 -1.8019481507352424 -0.8890847576474297 11.929655442129606 0 0 0
288 1 -8.360853388013481 -12.245565995666661 1.8286952794996338 0 0 0
289 1 -6.1736162376515455 -11.74047103442444 0.7060604648696955 0 0 0
291 1 -6.51890198328269 -12.756089420749603 3.2336641712513288 0 0 0
293 1 -4.444380394316136 -12.15822531931982 2.1585284402713576 0 0 0
27 1 -4.100459349030205 -13.678693505673081 0.18022816039380274 0 0 0
886 1 -0.32847454279078114 -12.202368154155442 2.740180388268575 0 1 0
294 1 -2.1783229585636956 -11.735688972134836 1.2669370906986348 0 0 0
354 1 -12.123953788305805 -13.817125297204132 12.2319210258319 0 0 0
383 1 -12.108743159299095 -9.881161990562354 0.364363290028237 0 0 0
335 1 -12.68652074098148 -11.058824558369743 2.923450516620983 0 0 0
145 1 -12.473156985146252 -8.554684191849905 2.3338936264700703 0 0 0
336 1 -10.432401854608813 -10.35890727761426 2.076155668447404 0 0 0
290 1 -6.418993737405836 -10.360439717447466 2.6642881857623077 0 0 0
377 1 -8.250912554126934 -9.91070084206709 1.0753070861279532 0 0 0
419 1 -8.612631222787094 -8.57293911061856 3.0874745362051197 0 0 0
835 1 -9.93698443433385 -2.2680461453160543 13.21943054553156 0 0 0
292 1 -4.343581176418029 -9.901234724591003 1.603985065099753 0 0 0
262 1 -2.1823879720048023 -9.351956372205656 0.6560630654749566 0 0 0
268 1 -0.27668455955795324 -9.677314470585127 2.321262724118734 0 0 0
266 1 -2.51710430122918 -10.320657386845976 3.2495507189041906 0 0 0
96 1 -12.468523703883086 -6.136591975007086 1.7859311570331045 0 0 0
304 1 -3.858438668756614 -1.3299415921402655 12.966848272927491 0 0 0
379 1 -10.365925310611907 -8.037241821448674 1.2799845578219582 0 0 0
420 1 -8.417228722300054 -6.0950475145129275 2.361262929131481 0 0 0
417 1 -6.3444146861422634 -7.95382204950859 2.1500106799818823 0 0 0
378 1 -8.095479396023368 -7.494086560897949 0.4445661282884572 0 0 0
261 1 -4.1848716010947005 -7.371791960429448 1.0382150312354046 0 0 0
263 1 -4.480272450444096 -6.0415975258253525 3.0284049999733664 0 0 0
353 1 -14.217259703377234 -9.817218684794433 12.142391811135427 0 0 0
265 1 -2.428550797467553 -7.926607149026596 2.6658404188953053 0 0 0
333 1 -14.37362145964606 -7.976854667185021 0.7435928908936891 0 0 0
10 1 -12.188137706875702 -3.634222986378669 1.2132752572627936 0 0 0
130 1 -10.128688503517814 -5.624802984194416 0.8235464592781341 0 0 0
421 1 -10.481709391407012 -4.12825705879108 2.8407701706660315 0 0 0
380 1 -9.99398899266411 -3.1428202092094875 0.22019765225915222 0 0 0
418 1 -6.2357114403754785 -5.578677566700955 1.359772228035668 0 0 0
925 1 -8.356621588006147 -3.656277259931045 1.7441851908167507 0 0 0
448 1 -6.115922825476089 -3.142057218967768 0.8327836032982354 0 0 0
445 1 -4.356850360704122 -3.578842139823818 2.3847978969879833 0 0 0
259 1 -4.152259649256806 -5.026915979871422 0.3588398623724043 0 0 0
240 1 -2.3601950152241074 -5.4252894063528245 2.0567407577815935 0 0 0
229 1 -0.3583856811623658 -3.5411233003125506 3.110856199470499 0 0 0
239 1 -2.069769982720045 -3.0897031715149694 1.3811113158831514 0 0 0
500 1 -12.451715450515033 -1.3786168506944474 0.6767052544501695 0 0 0
905 1 -12.636785100800942 -2.2673599658572403 3.2691830523659267 0 0 0
904 1 -10.394386604735342 -1.7905065104528806 2.2071207632353183 0 0 0
449 1 -6.0618687194670375 -0.7312165072360663 0.19435714278530902 0 0 0
918 1 -6.4650627200139725 -1.7117829532637572 2.7979307571387455 0 0 0
510 1 -8.192225096265323 -1.360329948852291 1.1966500910024553 0 0 0
446 1 -4.1868454987604125 -1.1741786566546857 1.8048469928878887 0 0 0
414 1 -2.0918191307630085 -0.6426004738265689 0.9317420674939836 0 0 0
228 1 -0.23140837410639392 -1.1536302536534393 2.388932327110508 0 0 0
385 1 -12.737793677668266 -13.39420295540283 3.6357889425043783 0 0 0
339 1 -13.161219074954204 -11.915039895507851 5.454722708739451 0 0 0
341 1 -10.830494937421548 -13.835621048604546 5.220524200328944 0 0 0
365 1 -9.055590628538258 -11.886530505638628 6.392924119332916 0 0 0
371 1 -8.647885145427031 -13.243324421760965 4.2991646049030745 0 0 0
340 1 -10.927669445660467 -11.415754204900908 4.66696922138045 0 0 0
297 1 -6.939131570365942 -13.701340041855486 5.962186706378516 0 0 0
296 1 -6.867134590465613 -11.337680923500216 5.293343974305595 0 0 0
299 1 -4.847173241890083 -13.218597151504852 4.782033636743202 0 0 0
309 1 -2.93996975792901 -13.855688510309477 6.590874875047772 0 0 0
272 1 -3.0305170291112784 -11.462693506748998 5.85611661272725 0 0 0
274 1 -0.7313271398911638 -13.24448472692539 5.463775787337541 0 0 0
300 1 -2.5353527799525146 -12.81153593396651 3.8679618612646127 0 0 0
338 1 -13.011491744707733 -9.507116880038716 4.753304539819224 0 0 0
366 1 -8.91470031873438 -9.47305854833456 5.705303453556089 0 0 0
373 1 -10.772377581948627 -8.947239607302635 4.10353622460031 0 0 0
367 1 -11.14981992639244 -9.918381102807881 6.578034170894897 0 0 0
372 1 -8.607296240499215 -10.825885697167651 3.6658273743175567 0 0 0
409 1 -6.739067179559263 -8.964397842553455 4.726453960753362 0 0 0
298 1 -4.722793623379108 -10.863426781918267 4.248223169390515 0 0 0
269 1 -4.9179692686295535 -9.525627203146806 6.329645552447422 0 0 0
264 1 -4.549906378534205 -8.36388061437496 3.608787257369462 0 0 0
271 1 -2.7238067026946915 -8.988937808335145 5.3615915038898425 0 0 0
273 1 -0.6963207581243669 -10.782429933006979 4.801408150149905 0 0 0
375 1 -12.86275483752694 -7.081020285576748 4.437873122971661 0 0 0
369 1 -13.176921968353644 -5.701013476116849 6.37267312785106 0 0 0
374 1 -10.491043508323475 -6.591092433505207 3.292332562434625 0 0 0
368 1 -11.010473038144529 -7.473907177305031 5.94207568678844 0 0 0
411 1 -8.815248874709553 -7.056642523450388 5.114353405763323 0 0 0
410 1 -6.607822768909079 -6.518009594858073 4.091486943494351 0 0 0
403 1 -7.074701598907281 -7.744010654418093 6.723317182634885 0 0 0
440 1 -4.816133085654506 -7.0722754663560075 5.718769821503626 0 0 0
246 1 -0.6632687903161187 -8.437554112815704 4.284452755272115 0 0 0
244 1 -2.672564589867685 -6.59984502783482 4.73069464981088 0 0 0
249 1 -0.9152822862394299 -7.155435216620533 6.3997534322217415 0 0 0
245 1 -0.5417934354687741 -6.026431431108463 3.6637600655222844 0 0 0
376 1 -12.665077264252727 -4.726072214639254 3.8170396067915977 0 0 0
370 1 -12.916415393597237 -3.2128962770237184 5.871386125919466 0 0 0
413 1 -10.890397972364227 -5.1910276784412765 5.377676684271043 0 0 0
444 1 -8.93754875223916 -3.4756752974928045 6.370940260026421 0 0 0
412 1 -8.701769469788488 -4.760865204655513 4.3696880714613915 0 0 0
447 1 -6.546160010702778 -4.118195013948085 3.477618854016269 0 0 0
442 1 -6.859662922076124 -5.224987848540069 6.2317970431158205 0 0 0
441 1 -4.686133645739126 -4.727680665099141 5.1319626016250925 0 0 0
247 1 -2.813048791050342 -5.129876052936748 6.81647160520142 0 0 0
231 1 -0.7729579696888518 -4.724789947648766 5.699697734694743 0 0 0
243 1 -2.5361487278157515 -4.0880358735980185 4.095293533187812 0 0 0
416 1 -13.047298520117936 -0.7173859034676102 5.2711623837969075 0 0 0
415 1 -10.838585087818657 -2.6951078781298214 4.854381211935015 0 0 0
913 1 -9.000921579571056 -0.8562816295639646 5.730116984973117 0 0 0
921 1 -10.848108049534169 -0.2192097055754303 4.363491138057208 0 0 0
919 1 -8.72180132952091 -2.285536591001966 3.810238421141433 0 0 0
443 1 -6.8596721893734225 -2.840896339681061 5.46610010139697 0 0 0
750 1 -6.650041186567086 -0.3994511540074903 4.911638746169766 0 0 0
459 1 -2.8840598500460377 -2.776837259899807 6.2455772222469665 0 0 0
752 1 -4.586594426982108 -2.296016955448229 4.4764803110589835 0 0 0
780 1 -4.779425224862482 -0.8488463340502985 6.503106108343788 0 0 0
461 1 -2.3539725614067386 -1.744531612755221 3.491169578366131 0 0 0
782 1 -2.535052882744253 -0.3220496920069422 5.405766528973681 0 0 0
230 1 -0.6988926508084656 -2.282192127248946 5.169547244363892 0 0 0
388 1 -13.531099467513766 -12.727076239140562 8.153216816330852 0 0 0
348 1 -11.533783303235158 -13.26967376024729 9.85918114539058 0 0 0
358 1 -9.428147768694604 -12.875227403723375 8.874581600804488 0 0 0
344 1 -11.322517594277581 -12.329896909448749 7.311641026447491 0 0 0
301 1 -7.109096027652368 -12.421091294639682 8.074378014704665 0 0 0
270 1 -5.0674687679389265 -11.908568157799529 6.785544715424395 0 0 0
276 1 -5.458135599165049 -13.202218676127345 9.692698086815808 0 0 0
278 1 -3.268070685729212 -12.60536405793293 8.515091599254985 0 0 0
279 1 -1.0031463952104858 -12.060595894382345 7.524397232175842 0 0 0
343 1 -13.295437482317672 -10.403353991614921 7.437545534548834 0 0 0
363 1 -13.707032192438371 -9.030652088432074 9.510105371377245 0 0 0
360 1 -11.538066660476321 -11.02178038928703 9.273068888854068 0 0 0
359 1 -9.393630238999094 -10.500783059704123 8.148271942580953 0 0 0
402 1 -7.156010458699636 -10.09622909025003 7.346375694016023 0 0 0
397 1 -7.298985782959943 -8.617915317940515 9.375261860454254 0 0 0
396 1 -7.588223408614643 -11.08632403506639 10.055576893114305 0 0 0
275 1 -5.352238858387453 -10.77499111179526 9.005063506833059 0 0 0
277 1 -3.065908358364357 -10.06286449682116 7.943469764479415 0 0 0
252 1 -3.551129964687682 -8.833076603369719 10.058134363633878 0 0 0
285 1 -1.4980779826708286 -10.821812227451602 9.648036445109215 0 0 0
250 1 -0.9371635862619438 -9.597269971416509 7.139802843506169 0 0 0
342 1 -13.220148638187181 -8.019755398904453 6.819402332845426 0 0 0
364 1 -13.492225217749892 -6.596185896263177 8.837924461038758 0 0 0
361 1 -11.474180427666703 -8.55409036587805 8.650027878029045 0 0 0
406 1 -11.236011808716672 -6.106333440665614 8.037782911028868 0 0 0
404 1 -9.209135597248345 -8.176495813062523 7.748576602623261 0 0 0
399 1 -9.443113811618872 -6.624287620786125 9.877470953384583 0 0 0
405 1 -8.990881374833876 -5.786055183765413 7.174002754337975 0 0 0
437 1 -7.224968457044192 -6.377017678362441 8.700338174646882 0 0 0
435 1 -5.187703589854687 -8.222700854654065 8.328932895622613 0 0 0
251 1 -3.353171430828443 -6.42934250649858 9.469366191829339 0 0 0
436 1 -4.985825171868225 -5.854083148813645 7.819516511360225 0 0 0
248 1 -3.0515674857202093 -7.635355402983421 7.368072652184159 0 0 0
254 1 -1.4038352032498995 -8.200664163833654 9.090419229589935 0 0 0
253 1 -1.057678809885589 -5.799718866933937 8.471162537602998 0 0 0
408 1 -13.353161377063511 -4.276505686308733 8.31043189196143 0 0 0
439 1 -9.387358034872854 -4.355289735605885 9.099098153992058 0 0 0
407 1 -11.204480146391099 -3.7653751913177995 7.332391333436478 0 0 0
438 1 -7.097983339169752 -3.7687586060832334 8.101355076158635 0 0 0
429 1 -5.382994404354232 -4.505611563412879 9.732142066999325 0 0 0
456 1 -3.1024237050092065 -3.7795212900656647 8.801743986228873 0 0 0
460 1 -4.868639887537968 -3.185251781857323 7.138192921759442 0 0 0
233 1 -1.0549161448046505 -3.333325312645103 7.700771846919546 0 0 0
911 1 -13.654176022828711 -0.331015848739467 9.797135774947785 0 0 0
902 1 -13.406515355677627 -1.843439159463406 7.780304261145604 0 0 0
910 1 -11.572145685556592 -2.261436345421549 9.38990087354343 0 0 0
914 1 -11.080666651545656 -1.3250084159757378 6.961040678312328 0 0 0
909 1 -9.209545702791125 -1.8957495949680272 8.345106221477602 0 0 0
779 1 -7.143617334549574 -1.4825627716063199 7.385238267789807 0 0 0
453 1 -3.5355338521541686 -2.6979080874871837 10.875080897002716 0 0 0
458 1 -5.4039192888406085 -1.9965385584581625 9.112945366827601 0 0 0
457 1 -3.0971551627120277 -1.358410185998265 8.308457495320566 0 0 0
305 1 -1.5184169199211208 -1.9287597655778086 9.933526334223261 0 0 0
232 1 -0.8564755965380044 -0.9937633378777093 7.188294219034285 0 0 0
347 1 -13.836898662517756 -13.629006754767083 10.644077375693412 0 0 0
356 1 -12.051392279299257 -11.618391112992054 11.738465144240342 0 0 0
1155 1 -14.189519485480217 -5.493892706357514 0.006954073692376994 1 0 0
242 1 -0.08167276976663906 -4.905388940729528 1.0612544644371624 0 0 0
355 1 -9.721102758792428 -11.618113468147 10.963140065691777 0 0 0
313 1 -9.897286512485227 -13.960410747401536 11.557547917484998 0 0 0
310 1 -7.653534397032776 -13.60487718200721 10.632230267222864 0 0 0
390 1 -8.107829121215271 -12.51827672737453 12.760688158681214 0 0 0
282 1 -5.888900828408671 -11.87082223470651 11.685041132724274 0 0 0
284 1 -3.8144859150639867 -13.748000703778914 11.194254482187945 0 0 0
283 1 -3.600146860381935 -11.43046237719507 10.788992902384694 0 0 0
48 1 -14.291740634114566 -12.096206868952393 12.543390864744884 0 0 -1
702 1 -1.4622476788778727 -13.22802840624897 10.159581964547408 0 1 0
258 1 -1.822988119513365 -11.931586653557176 12.407361653631947 0 0 0
346 1 -13.658078181353448 -11.231208430996897 10.100310910418331 0 0 0
286 1 -4.04731499543262 -12.427452854859695 13.417865929088302 0 0 0
357 1 -11.926548857141519 -9.356844016467509 11.26072021446687 0 0 0
392 1 -10.288023976206288 -9.654151976054386 12.88652095569663 0 0 0
398 1 -9.659152461940357 -9.129454282260717 10.417641016968998 0 0 0
391 1 -8.007255377988049 -10.033580641298736 12.113618012354172 0 0 0
281 1 -5.730398858837129 -9.455438626182202 11.022190733171774 0 0 0
256 1 -3.9377785712038254 -9.919938231007574 12.825472418768301 0 0 0
257 1 -1.700135911770591 -9.587375150806356 11.888768666462648 0 0 0
41 1 -12.275938106133305 -7.838855325146059 13.096644218646313 0 0 -1
394 1 -14.031240029644328 -7.324913385862011 11.432937675274621 0 0 0
400 1 -11.817650152014348 -6.982412549621632 10.641997355264335 0 0 0
393 1 -10.102580430353807 -7.372331587794548 12.250575255390947 0 0 0
430 1 -7.665927052085224 -7.5121222687919635 11.520282814553022 0 0 0
423 1 -5.950964158737515 -8.17965449101967 13.084146990058267 0 0 0