LAMMPS data file via write_data, version 2 Aug 2023, timestep = 0, units = metal

1858 atoms
3 atom types

-14.12624491674907 14.12624491674907 xlo xhi
-14.324257127317132 14.324257127317132 ylo yhi
-13.565833871870101 13.565833871870101 zlo zhi

Masses

1 55.847
2 1.008
3 1.008

Atoms # atomic

1732 1 -13.16730419011405 -11.216503742555489 -10.756000460276942 0 0 0
1554 1 -10.9698747261042 -11.772046962240385 -8.950912047035192 0 0 0
561 1 -11.096933693492012 -12.54601096563023 -11.17570464631732 0 0 1
662 1 -13.313831108276444 -9.29596904353345 -12.30358332594061 0 0 1
1849 1 -11.218379408514561 -10.594601093616461 -12.775592495893248 0 0 0
1747 1 -12.894247751288988 -13.192069173096293 -9.121119792212646 0 0 0
1698 1 -13.06864615366835 -12.167889331173527 -13.019797962431308 1 0 0
1541 1 -13.12412636987305 -10.673958450233453 -8.54654278589833 0 0 0
1733 1 -11.20734518158947 -9.73220196784954 -10.445473713748358 0 0 0
1712 1 -9.160630115338016 -11.100282818382304 -10.973640267658556 0 0 0
547 1 -9.301061628403637 -9.13476341988114 -12.421890723218718 0 0 1
1539 1 -9.100798199859598 -10.266548628682699 -8.647209171574783 0 0 0
1745 1 -8.877475459361854 -12.910516196968779 -9.550968755892494 0 0 0
1572 1 -8.90216252821531 -13.88986688798796 -11.922421796981698 0 1 0
1858 1 -12.974263055606375 -14.086934221108951 -11.520683164465085 0 0 0
559 1 -9.053537869580136 -12.058785461809839 -13.310722152995876 0 0 1
1521 1 -11.26631445444029 -9.109250078340866 -8.179578900733796 0 0 0
1728 1 -5.090601744623656 -10.888804214148728 -11.282244626254935 0 0 0
1730 1 -7.27517361678849 -9.667598157790398 -10.628370496899166 0 0 0
1743 1 -4.98105360409194 -12.74170530714518 -9.598609407742403 0 0 0
1744 1 -7.002885258991041 -12.231430981122093 -11.522230619326244 0 0 0
1537 1 -5.182650225896811 -9.7933343088234 -8.929879171789665 0 0 0
1758 1 -4.944115450183059 -13.591333390524612 -12.08563440047227 0 1 0
560 1 -7.07225897244773 -10.35506705993733 -13.029296423901844 0 0 1
1552 1 -7.003153099369959 -11.546028892283793 -9.141418383737161 0 0 0
1727 1 -3.2859176415747324 -9.188648420847333 -10.87634780097481 0 0 0
1740 1 -3.0644278005384837 -10.004323563244533 -13.21980874923118 0 0 0
1847 1 -5.181950731777608 -8.784730302157794 -12.737196853796766 0 0 0
1573 1 -6.867923470585848 -14.201576828461327 -10.136282474196303 0 1 0
1535 1 -3.0787605724169396 -11.1971821195246 -9.35189037774879 0 0 0
1726 1 -3.062903767759108 -12.00493736102692 -11.825057618837869 0 0 0
1855 1 -4.940641413082954 -11.54744450746092 13.484839539738182 0 0 -1
1741 1 -2.769254893665961 -13.778208663513817 -10.087928446500186 0 0 0
1725 1 -0.9941952529248308 -10.453822372444382 -11.394397084609668 0 0 0
1739 1 1.2506165112318008 -13.64067429939799 -10.387493238544138 0 0 0
302 1 1.0524413666537225 -11.752870462871979 -11.785128654259257 0 0 1
1533 1 -0.9261498409534017 -12.329100871772809 -9.778633858127076 0 0 0
1742 1 -0.7901671004361841 -13.19865627302184 -12.158403001325743 0 0 0
1513 1 -1.1058912959413352 -9.756810629080714 -9.068759640629104 0 0 0
1704 1 0.8808092459894095 -8.892607979471322 -11.08724610354155 0 0 0
164 1 0.9719079973232301 -9.841970726751846 -13.347995998820707 0 0 1
1531 1 1.1602945279072916 -12.724788018976973 -8.120065387813813 0 0 0
1723 1 2.798401004579137 -9.382432390524187 -9.379167284043739 0 0 0
1549 1 -2.8012729450476 -13.121647730554713 -7.746510857018136 0 0 0
1753 1 3.074889468424743 -12.153101421390238 -10.142037245261246 0 1 0
1724 1 3.029133326427459 -10.274187827142015 -11.687039609556976 0 0 0
1853 1 3.154708224617533 -13.135717729930617 -12.419357579837506 0 0 0
1721 1 4.916796012517658 -10.59812486707657 -9.777673660124542 0 0 0
1737 1 7.001296283130998 -11.952300727598352 -10.443774462792115 0 0 0
1738 1 5.070262346589541 -11.512248504974544 -12.055032567162257 0 0 0
1720 1 6.889199458134225 -9.954925531743886 -11.978131250958358 0 0 0
1850 1 7.187107392143542 -12.810102949480788 -12.704523567414245 0 0 0
1529 1 5.012035963199413 -12.431974717843364 -8.300090254236487 0 0 0
1752 1 5.170112708293743 -13.588781620333528 -10.57311243049458 0 1 0
1507 1 6.787108836727452 -9.121304433186292 -9.572375808409923 0 0 0
1366 1 7.123664575806195 -13.920495799012995 -8.760056186897728 0 1 0
1565 1 3.2479709142343154 -14.074902670323734 -8.581109393798414 0 1 0
81 1 5.283269468729969 -14.25320512475168 -13.060480883528404 0 0 1
72 1 4.8679752635954365 -8.706982039821096 -11.220502631745568 0 0 1
1842 1 11.125711236705403 -12.465429593154253 -12.958378576596022 0 0 0
1717 1 11.014752083031983 -11.657243659963385 -10.564640412351125 0 0 0
1719 1 8.954566658406101 -10.409475297582858 -10.038548222574365 0 0 0
1525 1 9.081735136403768 -12.404419554235599 -8.621563140765032 0 0 0
1843 1 9.059148283996628 -11.087614270779374 -12.486391318255514 0 0 0
1736 1 9.099500581436871 -13.061166731264265 -10.984301840197944 0 0 0
1833 1 10.964344706239807 -9.710925349932914 -12.052384190359499 0 0 0
1718 1 9.150243085587231 -13.968466502645883 -13.30992544828659 0 0 0
1735 1 11.344745301135283 -13.626496842042641 -9.025559131873365 0 0 0
17 1 13.069286409036327 -10.818294411272941 -12.699035300882773 0 0 1
1716 1 13.210265690631406 -12.782556224403073 -11.079240166949555 0 0 0
1696 1 13.003183001571866 -10.069150403873422 -10.274982936934363 0 0 0
1748 1 13.17272717297601 -12.108800693197072 -8.725764572228742 -1 0 0
1503 1 10.948297041009248 -10.751613648605305 -8.25845797374653 0 0 0
29 1 13.289898414622456 -13.580072959556702 -13.311548313522975 0 1 1
1697 1 10.83932533725337 -8.865758447712984 -9.840946588029487 0 0 0
1734 1 -13.309528685648175 -8.521675727170294 -9.954293988930369 0 0 0
1838 1 -11.360202902912597 -7.853735200639319 -11.875465346375659 0 0 0
1694 1 -11.538481522927666 -5.044741480970524 -11.167011775698311 0 0 0
1714 1 -13.38819753139561 -6.674361612573948 -11.510902014196038 0 0 0
1713 1 -11.443162938089346 -6.9993871287866725 -9.602698397160509 0 0 0
1715 1 -13.472423324306984 -5.837262343320393 -9.11683564357353 0 0 0
1501 1 -9.52068865214112 -5.520046789995355 -9.386089045682702 0 0 0
1840 1 -13.691913041534702 -4.740542235861499 -12.909911331669866 0 0 0
1692 1 -9.308146428473488 -6.294153663621437 -11.624192021788826 0 0 0
1693 1 -9.635726789372315 -3.5082031516281305 -10.800727691193519 0 0 0
1829 1 -9.620833184263425 -4.419671103631561 -13.173660219926262 0 0 0
1656 1 -13.762600568435188 -3.8667028025015675 -10.609679564452566 1 0 0
1502 1 -11.634544354773386 -4.183359166582228 -8.727210248710746 0 0 0
1731 1 -9.382768060201606 -8.250329930773582 -10.175669983656627 0 0 0
520 1 -11.409686848964656 -5.948023889816936 -13.35160777955359 0 0 1
1674 1 -11.696837973637413 -3.215463822017444 -12.656467598735105 0 0 0
1517 1 -7.290947137057184 -8.629014452906318 -8.327561131605378 0 0 0
1729 1 -5.397348382514432 -7.989838094772513 -10.537096233673363 0 0 0
1708 1 -5.458927870116176 -6.013767312112369 -12.038887088114887 0 0 0
1690 1 -7.483130572929802 -4.80053062572077 -11.245100836008742 0 0 0
1710 1 -7.259777129033944 -7.753702177048441 -12.243804911306256 0 0 0
1711 1 -7.448328540990763 -6.772341175329591 -9.87708429575819 0 0 0
1709 1 -5.465414131279168 -5.201178225752326 -9.557329138157337 0 0 0
1497 1 -7.523520107134147 -4.018926594404416 -9.026154842190804 0 0 0
1688 1 -3.491671099593601 -4.5595771402690275 -11.573255857143442 0 0 0
1846 1 -3.28620607033076 -7.27907739411278 -12.47671712127542 0 0 0
1707 1 -3.266639498967942 -6.583426303490849 -9.938916149983903 0 0 0
1495 1 -3.635549077573394 -3.7393703342168934 -9.284792302098726 0 0 0
1515 1 -3.210086592661227 -8.427685903030373 -8.556652614361946 0 0 0
1689 1 -5.602679778643388 -3.2181608485075177 -11.016911406678227 0 0 0
391 1 -5.617228486983903 -4.143750678378172 -13.352828423504926 0 0 1
1518 1 -5.328510266039505 -7.1689143157461706 -8.027015223550139 0 0 0
1845 1 -1.1494962765629229 -8.560249790078627 -12.950080000265604 0 0 0
1511 1 0.7607690681037305 -8.131278222419175 -8.673460573144457 0 0 0
1706 1 -1.2419618613370318 -7.802382441339888 -10.650263815359487 0 0 0
1686 1 0.48530200621377517 -4.358211482223648 -11.761215277886343 0 0 0
1836 1 -1.4763145993398954 -5.779841019944323 -11.940501849747914 0 0 0
1705 1 0.5505759463547317 -6.117683609184473 -10.230551798441144 0 0 0
1835 1 0.6966851592302188 -6.932155732301932 -12.609114673448072 0 0 0
1687 1 -1.5480915509223152 -4.995314849756534 -9.769659949362286 0 0 0
1685 1 0.3100883698919574 -3.4185098197428605 -9.52588245444323 0 0 0
1493 1 -1.4265356285817319 -6.81646496945033 -8.174622859480655 0 0 0
1683 1 2.5327976214148045 -4.696708011599053 -9.952895007081695 0 0 0
1825 1 2.581868917361078 -5.573569269914932 -12.157902719264788 0 0 0
1510 1 2.6306138757888036 -6.655920325976706 -8.2947069992026 0 0 0
1703 1 2.669265828421583 -7.532592928011443 -10.590585536753267 0 0 0
1834 1 2.8096108087655978 -8.279321007687596 -13.009975666767133 0 0 0
1509 1 4.675061118201551 -7.731103297960198 -9.064408816579252 0 0 0
1701 1 6.733728342073039 -7.172700540072544 -10.994022608452957 0 0 0
1684 1 4.638281070235326 -6.796887365450631 -12.789789919269095 0 0 0
1682 1 4.418445463526542 -5.907138837777119 -10.40985775273383 0 0 0
1823 1 6.573799488589707 -5.2651584577363995 -12.42667558108854 0 0 0
1824 1 4.442893848480093 -3.9350246023554476 -11.945842788053648 0 0 0
1681 1 6.4455214070688065 -4.47716973819904 -10.08845410681308 0 0 0
1487 1 6.603873584659933 -6.289226726604072 -8.620300240349469 0 0 0
1489 1 4.492333377109368 -4.852157045982347 -7.927584483207457 0 0 0
151 1 6.771311588061554 -7.963441007056599 -13.424623706650111 0 0 1
1469 1 4.366954674137581 -3.146740378447646 -9.73551078848234 0 0 0
1660 1 8.505030393029362 -3.788535126513363 -12.153326377707556 0 0 0
1832 1 8.842240965739077 -8.374654551170398 -11.51382658676595 0 0 0
1680 1 8.575014985217305 -5.61485444436684 -10.663107315603108 0 0 0
1699 1 8.749570990624015 -7.596700896630283 -9.258516652016912 0 0 0
1678 1 10.748896860538217 -6.7806818588619 -11.127227009718013 0 0 0
1679 1 8.573265144105566 -4.925103673390982 -8.400765885613964 0 0 0
1485 1 10.659833257094764 -6.058980804114292 -8.921082664253493 0 0 0
1812 1 10.54196026256762 -4.177061308756157 -10.548006526796184 0 0 0
1822 1 10.62773743240012 -5.048660700043023 -12.872232395623978 0 0 0
1677 1 12.650991972309694 -5.491872941519032 -10.847649833474293 0 0 0
1811 1 12.366782540002934 -3.404970295016307 -12.495910975797962 0 0 0
1676 1 12.787259573391264 -8.216593225568882 -11.766464054581185 0 0 0
1463 1 12.57648223886413 -4.625519166225754 -8.510385458702316 0 0 0
1483 1 12.702841766285012 -7.332531048326694 -9.49336218959327 0 0 0
1700 1 8.710159475774361 -6.480711061326763 -13.148998495643754 0 0 0
663 1 12.762062099312274 -6.25763795129895 -13.316784741364499 -1 0 1
1465 1 10.42689895812514 -3.239714096546745 -8.08083302675415 0 0 0
1831 1 10.751072713634194 -7.696905952076102 -13.532488079423672 0 0 0
1657 1 -13.855889620149005 -3.0646719923604753 -8.252252697040408 1 0 0
1479 1 -9.596701195680929 -2.5633771103566083 -8.375532693142764 0 0 0
1695 1 -11.789169656122155 -2.2250409497650487 -10.253236757153653 0 0 0
1638 1 -13.88045087665544 -1.8897400424748358 -12.091158486920571 1 0 0
1809 1 -11.85250657639622 -0.36104736463748033 -11.812033279133708 0 0 0
1673 1 -9.846032498960842 -0.9075377874515169 -10.122974654793545 0 0 0
1672 1 -9.816766319601598 -1.5690859254973102 -12.41983985416747 0 0 0
1459 1 -9.959066730411859 1.8649655844181652 -9.214265150298289 0 0 0
1652 1 -9.953511367374713 1.1704536809422876 -11.588450340018696 0 0 0
1480 1 -11.981775183372902 0.42844304846861725 -9.437873874964051 0 0 0
1654 1 -13.973820759096446 -1.0209988081045172 -9.739696277587157 0 0 0
774 1 -11.972593026731456 1.516501314472542 -13.3386611844332 0 0 1
1820 1 -14.089155468143707 0.8962479497976368 -11.169451152451309 0 0 0
1653 1 -12.037878472628826 2.341227067068889 -11.081005598936237 0 0 0
1461 1 -13.998172656924929 1.6157371950392978 -8.833553914326533 0 0 0
1828 1 -7.82672580818178 -2.960445143235102 -12.759107819879711 0 0 0
1827 1 -3.693602780007561 -2.610762700258835 -13.162986754867429 0 0 0
1691 1 -7.628923598403182 -1.9587885912794203 -10.519075391395859 0 0 0
1670 1 -5.690203832612163 -1.4183600225726671 -12.502496207855458 0 0 0
1817 1 -3.7879953513861846 0.20770432575367082 -12.366029040924513 0 0 0
1650 1 -5.930756393207764 1.359451503563223 -11.67746584943158 0 0 0
1818 1 -7.760750858679567 -0.2168507815223446 -12.130085222956156 0 0 0
1669 1 -5.730162799642816 -2.3371321820863873 -8.669845675100095 0 0 0
1671 1 -7.95221733609291 0.49218414586928283 -9.717665546676624 0 0 0
1648 1 -4.016566701745722 0.8454074855051648 -9.869817935791323 0 0 0
1668 1 -3.81160369633397 -1.7236976246307538 -10.748325133604798 0 0 0
1649 1 -5.978153479018657 2.1688270843308928 -9.348377170643994 0 0 0
492 1 -7.965164814763109 1.8269377940690887 -13.530787870517631 0 0 1
1666 1 -1.5622318960460042 -3.038883746877559 -11.31430627907693 0 0 0
1473 1 -1.6966856635715306 -2.146419644908894 -8.948088202279212 0 0 0
1816 1 -1.7249216678896602 -1.0311262741050502 -12.742959395940794 0 0 0
1646 1 0.30718466402059086 0.40547493137500545 -12.423634283357107 0 0 0
1806 1 -1.8697402697366172 1.7362384584884403 -11.980010184361447 0 0 0
1667 1 -1.7318897820706667 -0.21803294979739185 -10.561495644029556 0 0 0
1665 1 0.23902450345975268 -1.512830050714495 -11.091024519600166 0 0 0
1645 1 0.1284290957077392 1.3482030133404042 -10.174514150224377 0 0 0
1805 1 2.259225676532054 1.9239878834929307 -12.19593561665589 0 0 0
1472 1 0.2281751772476195 -0.6515750858305758 -8.606180363824079 0 0 0
1815 1 2.3015491158470027 -0.8602121045102287 -13.035600447890152 0 0 0
1644 1 2.169231306674913 0.03793795372401476 -10.694297471344768 0 0 0
1451 1 2.139694837977647 0.8189465840866816 -8.361981040291194 0 0 0
1471 1 2.3718661303002335 -1.9851946618730718 -9.186565553096152 0 0 0
1664 1 2.3293930043643023 -2.667025764325585 -11.469178527815721 0 0 0
260 1 0.28430933321594587 -2.2862786084374456 -13.432367225955387 0 0 1
1453 1 -2.172359198657638 0.5488995138794621 -8.089875750917702 0 0 0
1647 1 -1.9276777427828407 2.523641857039184 -9.633478418844586 0 0 0
1662 1 6.345533394487926 -2.4274739310006623 -11.76394528753258 0 0 0
1642 1 6.240833274977351 0.39083690151244355 -10.852684754166129 0 0 0
1804 1 4.220916248627308 0.6714184378197157 -12.738608313576211 0 0 0
1661 1 6.277421252728395 -1.6886794471974795 -9.362355008248652 0 0 0
1663 1 4.460370041465769 -1.1786345394099502 -11.157773205083405 0 0 0
1643 1 4.1896641672013075 1.4114145516155414 -10.333861412675581 0 0 0
1449 1 4.2544702010829525 -0.44191941823144454 -8.827843305355689 0 0 0
1641 1 6.154125323876443 1.1393541086146275 -8.586303380688067 0 0 0
1620 1 6.37925740445489 -0.6022225383520663 -13.198172289966816 0 0 0
1602 1 6.046173192825481 2.2228047070850927 -12.366481021841942 0 0 0
1790 1 8.146749397681504 1.874723011253412 -10.52465856903197 0 0 0
1639 1 8.10484990570291 1.0482878886993063 -12.845520037604102 0 0 0
1447 1 8.112387527138672 -0.1737016943742571 -9.131127608987818 0 0 0
1814 1 4.356534297289976 -2.0294894446868064 13.545230542773844 0 0 -1
1430 1 3.940080071860411 2.406673401554972 -8.061087984586113 0 0 0
1640 1 8.363397379180142 -0.9041164056653503 -11.549097648454872 0 0 0
1659 1 8.400246275922342 -2.8622684976531367 -9.857465982442271 0 0 0
1813 1 10.436287894941202 -2.2135355829022707 -11.851257673681825 0 0 0
1821 1 12.420160305522433 -2.6655991120040365 -10.072626119771849 0 0 0
1426 1 10.070683235010709 1.5186715813219411 -8.764900254137975 0 0 0
55 1 10.212954288841157 0.5967594290286051 -10.998704973256267 0 0 1
1637 1 12.169209772542587 0.1786219920398473 -9.202521449329573 0 0 0
1658 1 12.322561795281775 -0.5817313528887667 -11.604658611143508 0 0 0
1445 1 10.342034862844454 -1.4102871872956264 -9.546139898152424 0 0 0
1598 1 12.127167933081527 1.2717667444449852 -12.992235233843981 0 0 0
1618 1 12.277172562032955 2.040231886782685 -10.756748589914043 0 0 0
1791 1 10.023238506793842 2.47711425831271 -12.581243425964434 0 0 0
619 1 -10.115978871033152 3.092973226283803 -13.125688196978414 0 0 1
1798 1 -10.135019893803952 3.7569180816595242 -10.806679549318396 0 0 0
634 1 -12.211635582685702 4.318593986399545 -12.462189813947559 0 0 1
8 1 -10.435778270504116 5.87986802387255 -12.279416711576513 1 0 1
1614 1 -12.260951537088674 5.286435689176788 -10.233457582173935 0 0 0
1787 1 -12.452261137753277 7.148580611301476 -11.764900776593931 0 0 0
1633 1 -10.37839477141231 6.833288308413138 -9.897709477762264 0 0 0
1442 1 -12.07430311284432 3.1603271065982703 -8.787132748665792 0 0 0
1440 1 -10.154547531883251 4.750053705496818 -8.408501164204441 0 0 0
1422 1 -12.447485623088227 8.027522532302722 -9.435469132618241 0 0 0
1651 1 -8.00595743812412 2.60137871715747 -11.260804544441454 0 0 0
1612 1 -8.484069107666482 7.325902539189382 -12.07852906388156 0 0 0
1631 1 -8.403516971274678 5.46228273613584 -10.424271981677771 0 0 0
1628 1 -4.0253842455405255 2.811840735235215 -11.476982050082682 0 0 0
1808 1 -8.169181758617626 4.604067377417479 -12.716313707663028 0 0 0
1610 1 -6.500404325904251 7.011120650432439 -10.342644875409874 0 0 0
1630 1 -6.1348457767071904 4.1643144231911045 -11.123876837613354 0 0 0
1797 1 -6.3174984033204415 6.119386570646665 -12.481063761341389 0 0 0
1438 1 -6.1857105526023695 5.091255742025986 -8.906805355379936 0 0 0
491 1 -4.08491100591962 4.7313384391345075 -13.091401864976204 0 0 1
1629 1 -4.390801650407148 5.681805624500843 -10.73887225809857 0 0 0
1784 1 -4.331132313678534 7.667420459282219 -12.253826680480303 0 0 0
363 1 -6.059498372175884 3.3376314469042576 -13.392340367374995 0 0 1
1436 1 -3.977996176611642 3.722165114095958 -9.351413612411106 0 0 0
1458 1 -8.13058662856201 3.407855090785784 -8.976649063030031 0 0 0
1417 1 -4.278557094883835 6.6823308737836875 -8.435506168964775 0 0 0
1420 1 -8.294613225386803 6.339368952871823 -8.159683729421257 0 0 0
1432 1 2.1199515836257454 2.811962374948582 -9.760989706910127 0 0 0
1434 1 -0.18224695815257697 4.051394574371415 -9.413745556244564 0 0 0
1608 1 -2.2501599322544497 6.252604710274628 -12.690480847374179 0 0 0
1606 1 -0.32294125481172387 6.015479917568488 -10.906604073584532 0 0 0
1626 1 0.08813572520219992 3.24124649879764 -11.678105960639357 0 0 0
1627 1 -2.109919310371291 4.504666974440504 -11.063023489258146 0 0 0
1607 1 -2.374348160287118 7.28658592826665 -10.373975963655827 0 0 0
1414 1 -0.339436857541207 6.867314632665703 -8.59959104796296 0 0 0
1416 1 -2.212863799264099 5.438694558261844 -8.928761038843927 0 0 0
1794 1 1.739538463348092 6.761411599729552 -12.802462895578548 0 0 0
1795 1 -0.0625194591572189 5.128893951581727 -13.095429455426498 0 0 0
1605 1 1.6464681286846208 7.5225584799960075 -10.476146933486078 0 0 0
1625 1 1.8460764424990934 4.723944306032347 -11.324120497040862 0 0 0
1412 1 1.7981593544830865 5.572892022494845 -8.992537898610081 0 0 0
1796 1 -0.3901531717391684 7.924583932952679 -12.410661967784552 0 0 0
362 1 -2.04817433437484 3.7222844998233526 -13.485376840082195 0 0 1
1415 1 -2.3625468247538244 8.185097632890084 -8.034432899320667 0 0 0
1621 1 6.002905124032658 3.0137458587820802 -9.88043502213179 0 0 0
1624 1 3.9056149852840107 3.5394806482695635 -11.882499197429203 0 0 0
1604 1 3.771126103984699 6.298979685667785 -11.084175537720034 0 0 0
1623 1 3.928635259944752 4.383711129217655 -9.33259209089671 0 0 0
1603 1 3.767212269902778 7.075882438877088 -8.724077152791375 0 0 0
1780 1 5.770276264111374 5.058259096954444 -11.4320887776848 0 0 0
1782 1 5.702711188984857 6.9527160727296575 -13.12629791746105 0 0 0
1410 1 5.888622348953444 5.876967904788142 -9.193105141904379 0 0 0
1582 1 5.708862678763754 7.667389738186138 -10.642067841540936 0 0 0
1601 1 7.770782960198076 6.533357908446444 -11.232900812449188 0 0 0
1388 1 7.8859669077645265 7.343409051828093 -8.714226533460646 0 0 0
1408 1 7.937832653510451 4.569107998044668 -9.709914614460875 0 0 0
1803 1 7.858125542475399 3.7670522113103893 -11.993810349694 0 0 0
1428 1 8.078898763049242 2.726035283220668 -8.212983519316552 0 0 0
1793 1 3.8925042828638503 5.4808197063146515 -13.419428530189242 0 0 0
1655 1 12.124043305557606 2.986144411955163 -8.532404952342663 -1 0 0
1810 1 12.062949885182519 4.806384627687283 -10.080426896876004 -1 0 0
120 1 9.768139652985699 5.32895452144324 -11.753994152056217 0 0 1
1792 1 11.871646491695554 4.000391733166055 -12.37804845803727 0 0 0
1578 1 11.785826784572915 6.786887040373781 -11.479220563285555 0 0 0
1599 1 9.947850099138144 6.083932806448928 -9.396322590117563 0 0 0
1619 1 10.14597791551672 3.382490567148867 -10.279407188397562 0 0 0
1386 1 11.903590222014067 7.698894990541149 -9.076288462896404 0 0 0
1779 1 9.72490078799521 7.2183033203140745 -13.323838857475069 0 0 0
1597 1 13.976629117554634 6.358095496277574 -9.581523219205446 0 0 0
1799 1 13.994329613303666 5.464313858436828 -11.960305716089286 -1 0 0
1616 1 13.722317681287826 7.554955718661663 13.5413371589886 -1 0 -1
1406 1 9.952172367957449 4.206905080284798 -8.04173779869636 0 0 0
1634 1 14.077060538968304 3.5071383590456335 -10.60957391988369 -1 0 0
1617 1 14.026031985980865 4.441927501575787 -8.279514162154545 0 0 0
1600 1 -14.099983375288957 2.6813634491921796 -12.793436996698848 1 0 0
1613 1 -10.514923504340402 8.693889745640522 -11.552697316941572 0 0 0
1615 1 -12.569907518713935 9.923399542005221 -10.997574574283039 0 0 0
1594 1 -10.626978644202868 10.46349264950475 -13.094937401430387 0 0 0
1776 1 -10.706679595051384 13.153935911620714 -12.039166585075 0 0 0
1595 1 -12.811924915855434 12.681656408331108 -10.09589143361904 0 0 0
1404 1 -12.63448293949984 10.794590189708913 -8.526932503749368 0 0 0
1402 1 -10.586926170265874 9.451434330974376 -9.020571636579977 0 0 0
1596 1 -12.757116846049477 11.855420780209261 -12.520827466998862 0 0 0
1593 1 -10.668846679239785 11.435815357418782 -10.567848082512068 0 0 0
1789 1 -12.554701912025541 8.940592688470566 -13.396060601878407 0 0 0
1759 1 -8.847148989476551 12.908244426179827 -10.280027369124943 0 0 0
1774 1 -8.65816554337087 12.009848852480221 -12.749337015100437 0 0 0
1575 1 -10.692891412423906 12.170151763637197 -8.089594659953292 0 0 0
1400 1 -8.672415290972761 10.939201186909465 -8.713636187489383 0 0 0
1773 1 -8.493129980839218 9.232490635799099 13.541860207096683 0 0 -1
1592 1 -8.55718431076313 10.14906292068321 -11.180125079270594 0 0 0
1611 1 -8.45174604547677 8.189893677712401 -9.691655790703885 0 0 0
1609 1 -4.513231984512613 8.555539729177525 -9.792865082024502 0 0 0
1590 1 -6.391669200235301 8.816950201273098 -11.833238294112231 0 0 0
1591 1 -6.749198666361062 11.72241133235957 -10.850893945675512 0 0 0
1380 1 -4.534457265745095 11.290742163527987 -9.002814750764236 0 0 0
1398 1 -6.528961220607101 9.797218692576656 -9.326159407317821 0 0 0
1571 1 -4.75357256872433 12.247649006596095 -12.841994767876363 0 0 0
1772 1 -6.662228898716277 10.847281696294985 -13.164813432342989 0 0 0
1589 1 -4.495074771062685 10.408722296436963 -11.39308805300643 0 0 0
1569 1 -4.645303467938703 13.142764321721241 -10.483379534164623 0 0 0
1574 1 -6.6615883606756 12.478544032599956 -8.511568563923769 0 0 0
431 1 -6.8280816020050965 13.520514602136668 -12.413174301972532 0 -1 1
1378 1 -2.6484479259659324 12.98694924058811 -8.651544519356108 0 0 0
1570 1 -2.551688661943855 11.90095938850272 -11.186161326706987 0 0 0
1588 1 -2.326153157618771 9.195411978980449 -11.868840279218876 0 0 0
1768 1 -0.5101567982934689 10.677330419176137 -11.545495603177827 0 0 0
1587 1 -0.4226327762714721 8.805669669509346 -10.176849159858252 0 0 0
1396 1 -2.4909365956596083 10.122015554380425 -9.503255607631331 0 0 0
1585 1 -0.6886915555429329 11.647900698501218 -9.175016992042746 0 0 0
1783 1 1.5261782809294786 9.393882363116518 -12.008129939394307 0 0 0
335 1 -0.5975418776681263 12.630714776921558 -13.097777476676146 0 0 1
1586 1 1.3650506084364036 10.221051151985058 -9.787014983064894 0 0 0
1756 1 1.4551306075447297 12.10234792232825 -11.285004713832436 0 0 0
1567 1 1.2709701729482905 13.028908270315107 -9.095164679450946 0 0 0
1394 1 1.6096423264225344 8.42646296472282 -8.188712886635322 0 0 0
1568 1 -0.8003532054148845 13.620700802730145 -10.607258242969305 0 0 0
1770 1 -2.5718914696965136 11.105568727097527 -13.369305363533659 0 0 0
193 1 1.4310546041815346 11.420051428217974 13.461595193235954 0 0 0
1584 1 3.6322127317370523 8.232342248525981 -12.57115527187495 0 0 0
1766 1 5.610966794509267 9.591584264657257 -12.149126056221327 0 0 0
1751 1 3.552366346498527 10.90291013007764 -11.705511623913392 0 0 0
1562 1 3.567586669076185 8.98346222995077 -10.139282262781155 0 0 0
30 1 5.3709589096227575 12.411351736443532 -11.408542885656988 0 0 1
1583 1 3.362528525152115 11.748119483110262 -9.318926511299228 0 0 0
1581 1 5.412439321390124 10.487207559229034 -9.960541091903835 0 0 0
1755 1 3.3564065138181327 12.906961131014878 -13.265339540043072 0 0 0
101 1 7.582966688980445 8.417756333842515 -12.670517399649206 0 0 1
1563 1 7.458775790091657 12.009999058323736 -9.692207725140706 0 0 0
1764 1 7.489413306973468 11.225352258097711 -11.923138060066892 0 0 0
1765 1 7.659436892266633 9.361874863992131 -10.343602507592943 0 0 0
1390 1 5.677951226781978 8.646471666336986 -8.337268651621944 0 0 0
1564 1 5.364568785258747 13.221066914255577 -9.003255547899666 0 0 0
1370 1 7.7086712354940765 10.221175302104822 -8.040323851585 0 0 0
1392 1 3.4947017348274976 9.863717054391508 -7.723218799162107 0 0 0
1851 1 7.325272227443854 13.04811924315391 -13.507816248056947 0 -1 0
1580 1 9.764223011230658 8.034216974602181 -10.904722224443582 0 0 0
1560 1 11.424285947038086 11.452785197371018 -12.183051746885516 0 0 0
1561 1 11.484066559520759 12.32540733250784 -9.838398896861996 0 0 0
1579 1 9.576949734538712 10.92697113789768 -10.014741484840387 0 0 0
1558 1 9.3715274867481 12.66995271056646 -11.74715695287876 0 0 0
1778 1 9.596388571679036 9.8955945467896 -12.421938068562685 0 0 0
1777 1 11.710782995935752 8.773022814823928 -13.04467321569718 -1 0 0
1577 1 11.530998088557638 9.537424383915372 -10.714986764744443 0 0 0
1368 1 11.631645783038511 10.542367543177178 -8.35794343231359 0 0 0
1387 1 9.787085603115944 8.949032320524296 -8.606581258027902 0 0 0
1749 1 13.414834667602928 13.101290569020218 -11.940680471972536 0 0 0
1763 1 13.627687128532234 10.269856800331496 -12.685749055968289 0 0 0
1559 1 13.526931478284517 11.055448974696276 -10.48081415488137 0 0 0
1800 1 13.780821846816739 8.258089775288699 -11.232005389379703 -1 0 0
1424 1 13.74729256846194 9.28509856550512 -8.9644703118411 -1 0 0
1365 1 9.367277476051076 13.607759175975211 -9.322474955740635 0 0 0
1761 1 -8.703378986409689 13.742913859444986 -8.154019679837873 0 0 0
1746 1 -10.865870806926097 13.941062889946867 -9.79435367376621 0 -1 0
1550 1 -4.852996295087369 14.062275299689912 -8.225731580720089 0 -1 0
1548 1 -0.6047178589812567 -14.276541046182407 -8.173630316114451 0 0 0
1757 1 -2.6694917745636975 13.768224834311678 -12.446898356530056 0 0 0
1769 1 1.132529551741884 14.020604892817769 -12.706884550330459 0 0 0
1566 1 3.273516351685661 13.638274194694766 -10.817824320858207 0 0 0
1852 1 7.161963666578092 13.943238164858453 -11.17865815856877 0 -1 0
1557 1 11.33822564499813 -14.31433027906498 -11.327686012579147 0 1 0
1576 1 13.33975564937926 13.841989617916845 -9.666969526740981 -1 0 0
1347 1 -9.079029810432623 -11.355187088888549 -4.785587789721173 0 0 0
1349 1 -13.241705416742342 -9.794481276065234 -6.127052163328916 0 0 0
1363 1 -13.033521650347627 -11.591367378928819 -4.561953341321207 0 0 0
1555 1 -11.124145804463238 -10.977470721203096 -6.579453491168098 0 0 0
1362 1 -11.018969305625072 -10.052604424686757 -4.318971064592436 0 0 0
1523 1 -12.956532305305588 -12.480840479589734 -6.864649936430677 1 0 0
1540 1 -9.185129750818462 -9.415641445497837 -6.314967154686539 0 0 0
1168 1 -10.989304905407941 -12.902336579494676 -4.9516304910250035 0 0 0
1383 1 -10.767238234254869 -13.847428190267323 -7.38194347620166 0 1 0
1169 1 -13.031465572061121 -13.414849177388854 -2.9452083358393146 0 0 0
977 1 -9.09291878105632 -13.195801345613354 -3.3393410260940666 0 0 0
1553 1 -9.022018780777334 -12.30977371989885 -7.1092121951484115 0 0 0
1167 1 -11.106265664866202 -11.994168858264533 -2.630449147775302 0 0 0
1155 1 -9.216345160253308 -10.42350042400027 -2.406665975488183 0 0 0
1361 1 -8.946433779843684 14.294428454297996 -5.642431682194104 0 -1 0
1192 1 -12.771893752955535 14.11079710903049 -5.43585366623293 0 0 0
1345 1 -5.168511544952652 -11.12218912432186 -5.04376705761884 0 0 0
1358 1 -4.977048940353747 -12.964803642526256 -3.3438116312558943 0 0 0
1359 1 -7.227106376213874 -12.572064000745971 -5.270416098479119 0 0 0
1536 1 -5.401566554175666 -9.0805539229142 -6.59095902141105 0 0 0
1551 1 -4.9827715785149405 -11.79089945975458 -7.4023962486736 0 0 0
1538 1 -7.161125209782092 -10.756659304556681 -6.8895475376737005 0 0 0
1357 1 -4.878938819090177 -13.682618741606763 -5.710462111510917 0 0 0
1346 1 -7.09421202683406 -9.794882675097712 -4.517380396687749 0 0 0
1342 1 -3.079881886781685 -9.454543262484421 -4.672585689462107 0 0 0
1360 1 -7.172076072738663 -11.690148059807054 -3.0285237159266476 0 0 0
1382 1 -6.9225385282244085 -13.3677294718831 -7.695165705436419 0 1 0
1153 1 -5.179588231889907 -10.276817895448488 -2.6317708308846903 0 0 0
1534 1 -3.1702741668604837 -10.318067355350992 -6.888867306422016 0 0 0
1151 1 -2.9590282471504956 -11.430702693357738 -3.2023659732517036 0 0 0
1343 1 -3.041568003734758 -12.107939137488112 -5.47432666884092 0 0 0
1356 1 -2.7958318739461596 -14.280805502603862 -3.84493818233765 0 0 0
1341 1 -1.0329179080549746 -10.760157164674686 -5.190978388488922 0 0 0
1340 1 0.8830905007129992 -11.071891182746077 -3.2887295422029066 0 0 0
1355 1 1.0805810555347257 -13.842883252996142 -4.191116297699747 0 0 0
1532 1 -1.008235400088335 -11.567743579288319 -7.468143225236623 0 0 0