LAMMPS data file via write_data, version 2 Aug 2023, timestep = 0, units = metal

1866 atoms
3 atom types

-13.876777256193359 13.876777256193359 xlo xhi
-14.094476044217997 14.094476044217997 ylo yhi
-13.96537144783741 13.96537144783741 zlo zhi

Masses

1 55.847
2 1.008
3 1.008

Atoms # atomic

508 1 -12.16500491596491 -12.16527616472725 -13.593624886499878 0 1 0
225 1 -11.949994133277565 -13.253555469759007 -11.167419417404982 0 0 0
1047 1 -13.675091061382105 -11.474251971251764 -11.073481571758776 1 0 0
193 1 -9.806756153893618 -12.22174778597944 -12.19839596668118 0 0 0
196 1 -7.461425645744125 -12.342672380604284 -10.793936650028021 0 0 0
188 1 -7.330779915465444 -13.835408455269613 -12.704767694600237 0 0 0
194 1 -7.583997177368125 -11.423590874336114 -13.002004294894762 0 0 0
395 1 -5.379379325859016 -13.060148776216602 -13.689729240661844 0 0 1
149 1 -5.12015617424958 -11.461772563324645 -11.561649817601015 0 0 0
78 1 -8.417494096259707 -4.143099372999254 -13.828138303916592 0 0 0
146 1 -3.12156118845078 -13.037112461527217 -12.21404061723856 0 0 0
147 1 -0.8550952791449866 -12.316468635956413 -12.778268348431158 0 0 0
192 1 -1.417340656156096 -13.399472577951425 -10.413698981818825 0 0 0
154 1 -11.576485425555118 -10.402411232986932 -11.78793147092241 0 0 0
1088 1 -13.23680097143312 -8.780874835059304 -11.727921668156315 1 0 0
20 1 -5.321873130880675 -2.0838820574045887 -2.1199418500571205 0 0 0
155 1 -9.377635395137503 -9.417925533457698 -12.774400206133587 0 0 0
109 1 -7.194835850673878 -8.632443081963796 -13.57801648115046 0 0 0
157 1 -6.726107516860059 -9.616867749288508 -11.330241516375514 0 0 0
110 1 -4.563803182776978 -8.716123632149163 -12.149778790276265 0 0 0
469 1 -9.433502299902923 -0.3238765195061113 -3.303788676653868 0 0 0
150 1 -2.879818904073103 -10.614918257241484 -12.349116627883982 0 0 0
1247 1 -0.832716780335403 -9.558542917213138 -13.323015897248553 0 0 1
108 1 -0.5403122564140066 -10.618921740860152 -11.011992209232893 0 0 0
112 1 -2.2025734061126716 -8.883139255382192 -10.735951096023186 0 0 0
124 1 -12.715377177975508 -6.034514223009646 -12.227871773405111 0 0 0
115 1 -10.991353463346307 -7.741053851751513 -12.429123152297096 0 0 0
223 1 -3.4604406174839433 -13.945387070641173 -1.0938478189839937 0 0 0
126 1 -10.254959000527865 -6.217512351125604 -10.752108699920193 0 0 0
116 1 -8.790418892043345 -6.858141338943354 -13.220089039224172 0 0 0
117 1 -8.664416010629218 -7.895774238849773 -11.072124372139134 0 0 0
118 1 -6.454286147747458 -6.958340513262979 -11.801759345523111 0 0 0
72 1 -4.256216500714308 -6.019043029782795 -12.696709833149546 0 0 0
120 1 -3.8620714926924187 -7.047153771692338 -10.498147569540652 0 0 0
111 1 -2.454775833701502 -7.6085719202952315 -13.058544755493273 0 0 0
74 1 -1.788504210074347 -6.044520457370705 -11.37711802021813 0 0 0
113 1 -0.12755875779711268 -7.796662218668045 -11.53189212276548 0 0 0
244 1 -0.3338825048560974 -6.709604537729139 -13.795830731708898 0 0 1
990 1 -12.221841091938062 -3.2790309364396233 -12.744261873253445 1 0 0
77 1 -10.588609615878719 -5.067881206987241 -12.985914055250422 0 0 0
88 1 -9.987158199619667 -3.4117893770120116 -11.35900960529963 0 0 0
79 1 -8.107179284508582 -5.1701668205584195 -11.66052731388909 0 0 0
481 1 -3.387338632540862 -0.1620677993488151 -5.1472461690071505 0 0 0
80 1 -5.873451416674751 -4.283264638704544 -12.519716137177126 0 0 0
49 1 -3.749989138042743 -3.1994345271092577 -13.229952921752615 0 0 0
82 1 -3.507815429488131 -4.133767007210649 -11.02877544678294 0 0 0
50 1 -1.3494581539172454 -3.253301809528738 -11.78541306549852 0 0 0
73 1 -2.0641854219633906 -5.054094223921501 -13.425563189010486 0 0 0
86 1 -11.78951727415691 -0.4621589682876852 -13.371105367554408 0 0 0
59 1 -11.631100476549236 -1.4744316379739946 -11.137510669406348 0 0 0
474 1 -9.405071356952355 -0.4808774113090859 -11.92790827956608 0 0 0
52 1 -7.726488575786527 -2.39664581501213 -12.276306590195707 0 0 0
51 1 -10.082357585136467 -2.3621753439097546 -13.43288971315963 0 0 0
475 1 -7.02293906470165 -0.6789357630342341 -10.484917132024256 0 0 0
53 1 -5.558762791759383 -1.4753138183919567 -12.972758663479636 0 0 0
54 1 -5.421995690026947 -2.459581775190186 -10.789616505737081 0 0 0
55 1 -3.0551872081947717 -1.3423318115574343 -11.575173115921647 0 0 0
576 1 -1.0947665075383366 -0.4155161881623606 -12.506271649333735 0 0 0
575 1 -3.3471595078237364 -0.5308598339928157 -13.900446582653073 0 0 0
204 1 -11.234804125161517 -11.60317563621819 -9.59100281860792 0 0 0
205 1 -11.070744941766932 -12.449774580549343 -7.409563723182427 0 0 0
627 1 -13.511896706862231 -12.556621682800237 -8.692748047613588 0 1 0
195 1 -9.751482178621238 -13.398084282620259 -9.770048747029836 0 0 0
197 1 -7.259906082965227 -13.437511946764248 -8.363752560079606 0 0 0
206 1 -8.970428980112011 -11.668637234750872 -8.255392706102521 0 0 0
198 1 -5.171961951024315 -12.598014928790562 -9.329955472708917 0 0 0
199 1 -4.887491030106258 -13.76968053368322 -7.038080481943839 0 0 0
151 1 -3.0347773223067858 -11.667978620056704 -10.199488517633693 0 0 0
152 1 -0.4435971468465052 -11.705677308075096 -8.80604961559796 0 0 0
200 1 -2.719766268334821 -12.733488335448763 -7.860183164695426 0 0 0
165 1 -12.95486798328677 -9.786351735705376 -9.412520324588979 0 0 0
166 1 -10.842775908284565 -8.790688325166492 -10.180783740493453 0 0 0
167 1 -10.47361736999134 -9.74443188175744 -8.089092424101601 0 0 0
214 1 -12.750146789422264 -10.691544705552614 -7.1340162451913125 0 0 0
156 1 -9.02424260552299 -10.626874650157253 -10.505770059000259 0 0 0
168 1 -8.329802426463544 -8.84107948964433 -8.853825804501756 0 0 0
158 1 -6.728442962903806 -10.741855431065387 -8.961031354333079 0 0 0
159 1 -4.403561194267775 -9.744025940281873 -9.956468486041103 0 0 0
170 1 -5.967471811432028 -8.856346140480877 -7.423790681712499 0 0 0
160 1 -4.327239185062364 -10.895492314713547 -7.731092731146655 0 0 0
161 1 -2.0090020310296417 -9.897273938546412 -8.526193598859367 0 0 0
125 1 -12.546774788285758 -7.097271617073279 -9.9427985666912 0 0 0
176 1 -12.279196579304271 -8.080670110750328 -7.744776337646314 0 0 0
127 1 -10.149788627833843 -7.16714682775991 -8.563328664281391 0 0 0
128 1 -7.956395237277544 -6.295109196657955 -9.4609622156655 0 0 0
129 1 -7.671619582443308 -7.181571388834063 -7.2070182943462395 0 0 0
119 1 -6.097297288631253 -7.9961718611580626 -9.672926756185143 0 0 0
121 1 -3.725552713092542 -8.130879635668837 -8.305166177662269 0 0 0
130 1 -5.450311725472808 -6.242235814745954 -8.05744440644482 0 0 0
122 1 -1.6583258753556382 -7.105516068795516 -9.206459123360236 0 0 0
87 1 -12.093919032462374 -4.35526398142979 -10.528515934974145 0 0 0
136 1 -11.718595244424385 -5.378317628374656 -8.307678251994222 0 0 0
1117 1 -13.432896781429227 -3.5734049099833225 -8.169920812884016 1 0 0
89 1 -9.476669671402902 -4.432703803019736 -9.083242783380692 0 0 0
90 1 -7.515604249691572 -3.4604567178705086 -9.959473576547444 0 0 0
91 1 -7.30752075074486 -4.573021988418194 -7.829220436445427 0 0 0
81 1 -5.816557772841195 -5.300636229703704 -10.267214863156306 0 0 0
92 1 -5.025091510510123 -3.43129392166815 -8.62632360221846 0 0 0
83 1 -3.2824782483322394 -5.317448617021091 -8.888471961326712 0 0 0
84 1 -1.174278111520879 -4.299008769829523 -9.576118226780657 0 0 0
85 1 -0.9540431383062415 -5.491797613807282 -7.480869184744033 0 0 0
94 1 -2.6244727779524517 -3.6042812905228203 -7.261831930263717 0 0 0
98 1 -11.302996559046722 -2.6258849744540083 -8.837218189735092 0 0 0
477 1 -13.0041421028608 -0.8626224269444016 -8.58844251885349 0 0 0
66 1 -10.467830927472804 -0.9640301673353164 -7.201711947232085 0 0 0
989 1 -13.706836142963095 -2.475591367586464 -10.361674972836429 1 0 0
100 1 -8.878889954700727 -2.611888330796015 -7.387874818873175 0 0 0
60 1 -9.173774712838917 -1.6941793230587336 -9.807935648643259 0 0 0
62 1 -4.538531311887219 -0.8686102352445388 -9.051225339736979 0 0 0
61 1 -6.833042940575913 -1.860765824770187 -8.303844786008174 0 0 0
63 1 -4.23348416761519 -1.7184806746893493 -6.934710970539901 0 0 0
58 1 -0.43784685072587415 -2.6019024438298555 -7.935545674722602 0 0 0
56 1 -2.9158242552228817 -2.5082103871715855 -9.314364571725324 0 0 0
57 1 -0.796875007348012 -1.6443126981478748 -10.245615661965912 0 0 0
64 1 -2.1572362052352574 -0.7934146701265625 -7.672940944992059 0 0 0
227 1 -13.294911331165084 -13.681432863852493 -6.479243543894229 0 0 0
215 1 -12.502095452991838 -11.802702968964615 -4.928107854679935 0 0 0
228 1 -10.882042789965194 -13.582410008834678 -5.3187883391771535 0 0 0
229 1 -8.418480869143501 -13.765744053586774 -3.7826198197606846 0 0 0
207 1 -8.636267343880402 -12.621403912635735 -6.072386487927156 0 0 0
217 1 -9.992808261733833 -11.807166677238154 -3.5519329748804314 0 0 0
208 1 -6.42489566998694 -11.723169354443959 -6.836392331464164 0 0 0
210 1 -4.065091695071075 -11.928791135330492 -5.461622535498394 0 0 0
209 1 -6.263320196601621 -12.714293560716104 -4.73853500167278 0 0 0
201 1 -2.287183146282988 -13.675690913353067 -5.62861315263442 0 0 0
212 1 -1.5931788646237663 -11.827572142790377 -4.106169070952406 0 0 0
153 1 -0.30667204178882734 -12.678483371419118 -6.592863137295551 0 0 0
69 1 -3.2269078281846593 -1.183943139518778 -3.121793864314215 0 0 0
177 1 -11.939994675448926 -9.184667860049116 -5.542895414270566 0 0 0
216 1 -10.322101196235018 -10.875232395695713 -5.711180049454214 0 0 0
218 1 -7.796022001232456 -10.933817792038226 -4.452199061932035 0 0 0
169 1 -8.164424044105836 -10.022198417803367 -6.658277630769662 0 0 0
179 1 -9.37631256085228 -9.110943561291233 -4.187476418261264 0 0 0
171 1 -5.682590883763067 -9.900612022312846 -5.191435190098655 0 0 0
172 1 -3.6047646238795945 -9.007294797309026 -6.116617986357856 0 0 0
173 1 -3.2490126049202566 -10.084918395654576 -3.8247381758475054 0 0 0
162 1 -1.9006436356777687 -10.861757897678153 -6.342411260470325 0 0 0
174 1 -1.1027455594809865 -9.161293244552077 -4.717903608429284 0 0 0
137 1 -11.442561664146755 -6.4239979659337 -6.030297483194716 0 0 0
28 1 -11.14080983658781 -7.298087764917521 -3.9671326439803547 0 0 0
1075 1 -13.684725645617437 -7.394657818679901 -5.268651973008323 1 0 0
12 1 -12.894785890431004 -5.566745065857729 -3.5778932424879066 0 0 0
180 1 -7.277486428862994 -8.239294275089657 -5.0234666739454745 0 0 0
178 1 -9.849212867810838 -8.23133038514799 -6.3635374739157875 0 0 0
139 1 -9.036290528646825 -6.414966920172866 -4.722145047310871 0 0 0
131 1 -5.302304019462094 -7.182678709788463 -5.823563215265114 0 0 0
182 1 -4.8983446513754885 -8.290950940281961 -3.564126330729035 0 0 0
142 1 -4.5356303698158875 -5.456331220885152 -4.015822668921338 0 0 0
123 1 -1.3658636136184974 -8.04354850392972 -6.8909831333975715 0 0 0
132 1 -3.14464144199264 -6.220951550884471 -6.548256335514442 0 0 0
133 1 -2.7726241133123217 -7.262245665406339 -4.470858359045382 0 0 0
134 1 -0.534336007606047 -6.395529286299452 -5.304524968182161 0 0 0
13 1 -13.179557810736464 -4.53296787904044 -5.926502823077245 0 0 0
99 1 -11.02593671073361 -3.6811632164532817 -6.6043714419851804 0 0 0
11 1 -10.650182898507133 -4.723500027439993 -4.350889654630334 0 0 0
25 1 -12.35263883179882 -2.867834842126202 -4.2357892411847935 0 0 0
138 1 -9.38616070592828 -5.441214123401087 -6.838294690540197 0 0 0
101 1 -8.560344829151056 -3.674677622399125 -5.263863798752039 0 0 0
140 1 -6.871118143584843 -5.439859753228944 -5.620205464431468 0 0 0
93 1 -4.754142752602581 -4.4095050190968905 -6.481644884423843 0 0 0
103 1 -6.067230536845392 -3.6859307009050326 -3.9876909098144058 0 0 0
104 1 -3.9161596561710947 -2.869642526059476 -4.756496373156203 0 0 0
95 1 -2.2354543130830304 -4.607733869422871 -4.945306835571502 0 0 0
2 1 -0.1120403651777373 -8.606303050543836 -0.7364778492945216 0 0 0
26 1 -12.673472958871672 -1.908137235749404 -6.292162443891685 0 0 0
22 1 -7.724678366783927 -1.9872618095631722 -3.5079916102231117 0 0 0
24 1 -10.167012571894436 -1.9921175178227468 -4.842437868146575 0 0 0
67 1 -8.077149005585692 -1.0710850309754498 -5.772959542543839 0 0 0
43 1 -4.535221011573229 -0.4918035038762252 -0.45985281051967597 0 0 0
102 1 -6.405785090515007 -2.6956350660021524 -6.068597046653354 0 0 0
68 1 -5.606522127062112 -1.0732664342356717 -4.3267970642522755 0 0 0
17 1 -11.688866772937477 -1.2142433397710803 -2.536498105332175 0 0 0
65 1 -1.7123102285855314 -1.9987064358940145 -5.540186666934472 0 0 0
70 1 -1.0988999857327553 -0.19059867303007216 -3.6409016483162073 0 0 0
14 1 -12.887398000613707 -0.43104220390104153 -0.03206972096571903 0 0 0
45 1 -12.212903990151599 -12.825095819482215 -2.7895301548539138 0 0 0
978 1 -13.590887815290799 -12.043223102521598 -0.4544561148661277 1 0 0
15 1 -9.07279322563024 -1.2287550424716773 -1.1646948208630263 0 0 0
638 1 -9.81159224212503 -12.880809914683326 -1.4431368421728692 0 1 0
219 1 -7.507182941660239 -12.0547007698203 -2.2063553969958054 0 0 0
230 1 -5.974249300293222 -13.823264355510052 -2.599754260778731 0 0 0
211 1 -3.7641379418703913 -12.9533346760893 -3.305091390700447 0 0 0
221 1 -5.065619419455109 -12.15770564322489 -0.8607878335410426 0 0 0
190 1 -5.094321909997422 -13.67920588142089 -11.320833826927435 0 0 0
213 1 -1.2813483300260007 -12.877871444289623 -1.9507151758882824 0 0 0
946 1 -0.4189104399296433 -11.234699396075928 -0.18814551995337325 0 0 0
37 1 -11.462205354792609 -11.118270761275564 -1.2741589125695967 0 0 0
48 1 -7.2731704191919135 -13.070490111845729 -0.09950068193168349 0 0 0
36 1 -11.782594916519294 -10.017258728732205 -3.2848213406016296 0 0 0
41 1 -13.057480725954639 -9.333076757343315 -0.9253177601299232 0 0 0
38 1 -9.22829316150846 -10.320086044591523 -1.9214347179890812 0 0 0
31 1 -8.486719993996646 -8.522732947732571 -0.2912023045008105 0 0 0
181 1 -7.0947374328267 -9.259236560344311 -2.7030101574294125 0 0 0
40 1 -6.790677132768964 -10.264766584476565 -0.6665643410611235 0 0 0
220 1 -5.30324983883448 -10.964629091772874 -2.9520671393513247 0 0 0
183 1 -4.473219613776266 -9.333245289131867 -1.3100134319105852 0 0 0
222 1 -2.9258191070719732 -11.141474174790929 -1.6585898463395896 0 0 0
175 1 -0.9309761581652278 -10.229504882737768 -2.3944810247192265 0 0 0
184 1 -2.444412124359779 -8.328387902787536 -2.1757424315210177 0 0 0
71 1 -0.7604690780316385 -1.4235730196621148 -1.6682173035310868 0 0 0
29 1 -10.79432495063125 -8.440124222098289 -1.6278794989224554 0 0 0
27 1 -13.37357846147158 -8.328469005455709 -3.148484962753024 0 0 0
34 1 -12.539925411787952 -6.602833330849124 -1.402780592569 0 0 0
10 1 -10.377523933987653 -5.824502513465244 -2.1982452613196752 0 0 0
30 1 -8.663768206953023 -7.557754571374181 -2.51991476844489 0 0 0
8 1 -8.05742482721821 -5.881459797916383 -0.860317940885448 0 0 0
471 1 -11.904913422583107 -0.06784552546930556 -4.600740952872831 0 0 0
141 1 -6.726813030592486 -6.528892205032043 -3.365750844564225 0 0 0
32 1 -6.296484294058886 -7.610548025854611 -1.1428923959569826 0 0 0
143 1 -4.177989836855605 -6.646342467664304 -1.927271603898875 0 0 0
135 1 -0.3287132989457682 -7.429139490443767 -3.1221664837622747 0 0 0
145 1 -1.7630488447439614 -6.642756493379307 -0.6311275238877911 0 0 0
144 1 -2.0438081068905465 -5.670699440602517 -2.742993898025512 0 0 0
5 1 -12.081081092349951 -3.846727750920424 -2.0195897962393303 0 0 0
23 1 -9.84854664058886 -3.027581194956719 -2.6290524259132724 0 0 0
9 1 -8.125597719452177 -4.634780667416507 -2.95050840523246 0 0 0
3 1 -9.618290043394339 -4.057813188243202 -0.47194766478821926 0 0 0
21 1 -7.465753602804703 -3.150590351469777 -1.1481709923129255 0 0 0
7 1 -5.80137743818254 -4.930517099051768 -1.6841620158572397 0 0 0
105 1 -3.607392331134271 -3.944688752849469 -2.4097670929011663 0 0 0
44 1 -6.922586425049732 -0.26910401850528487 -1.8794762853587326 0 0 0
6 1 -3.3633515803743794 -4.897918487659629 -0.24472394685479948 0 0 0
106 1 -1.490556364061593 -2.9985804614892775 -3.2917025037724272 0 0 0
107 1 -1.1986479799948793 -4.00243964493362 -1.075532551287715 0 0 0
1100 1 -13.72532350683231 -2.0043595471605204 -1.6842697579556472 1 0 0
18 1 -2.8929897005556704 -2.0996278999193105 -0.7490403846550038 0 0 0
16 1 -11.228469432545658 -2.272191298136038 -0.22945754605763646 0 0 0
96 1 -0.027821083408044345 -3.6901658894094727 -5.696330565423219 0 0 0
148 1 -5.436874543949392 -10.320856629310036 -13.775051565936257 0 0 0
374 1 -13.601513146039395 -7.596335103396017 -13.834829422911463 0 0 1
480 1 -5.881099308686023 -0.02140448606680856 -6.650099829090133 0 0 0
47 1 -11.82417069517386 -13.795599584727118 -0.7414156682371758 0 0 0
368 1 -10.533609196694703 -13.954020286698123 -13.805274042633071 0 0 1
1246 1 -13.055202521583245 -13.228423936031586 1.7054076755411423 1 0 0
355 1 -10.991374549331534 -12.338798744387223 0.9626999057153061 0 0 0
856 1 -10.665065224347302 -13.381055119862038 3.2302949187126657 0 1 0
276 1 -12.217688232506038 -11.525012698342636 3.524516048956251 0 0 0
444 1 -8.525123245722007 -12.385352940755011 2.355655773163374 0 0 0
232 1 -2.005705578582127 -1.208139634591376 11.648344386894305 0 0 0
449 1 -4.760161520618974 -13.20010824091794 1.3443883819968505 0 0 0
448 1 -3.948733515800434 -11.395333489302505 3.116161087720819 0 0 0
442 1 -6.351883323743931 -11.297273011263574 1.5924854912974808 0 0 0
458 1 -2.612246756742282 -12.126705456011797 0.5028474741542386 0 0 0
450 1 -2.404037141786624 -13.17493086488279 2.8212144477503394 0 0 0
1208 1 -0.14635104965958412 -12.266657519383354 1.971084007242455 0 0 0
896 1 -1.0059763678763787 -13.94167968369067 0.22068131832490678 0 1 0
356 1 -12.694771056080004 -10.577277665839793 1.2200172542266063 0 0 0
365 1 -12.109431288120371 -8.862169048563317 2.9643691856650562 0 0 0
42 1 -10.631514471750465 -9.621896853996432 0.4708444239631131 0 0 0
39 1 -8.828498411417772 -11.229946549362964 0.21296956164375302 0 0 0
443 1 -10.291328492351273 -10.6413912481573 2.612487023772591 0 0 0
364 1 -7.971912780359002 -9.51421228186137 1.9039346634588359 0 0 0
457 1 -4.366134988545204 -10.372686151578675 0.8027437045765815 0 0 0
441 1 -5.625139590402439 -9.642878053423132 3.195111462008935 0 0 0
455 1 -6.007646315781506 -8.500515729518014 0.9554730717599913 0 0 0
440 1 -3.568168526633725 -8.834717276428133 2.6020066797878343 0 0 0
447 1 -1.766373264631424 -10.46418505099 2.26591393620847 0 0 0
1218 1 -0.024114706737268676 -3.3956934460217614 2.8986931157504507 0 0 0
345 1 -12.165030023399273 -7.760381672047949 0.8001839470800007 0 0 0
344 1 -11.661438768845168 -5.990190710439263 2.511660568250175 0 0 0
354 1 -13.700829096555927 -7.014764423521697 3.3112932414408007 0 0 0
353 1 -9.93240926463644 -7.944584453180928 2.2449142580852417 0 0 0
391 1 -7.640721676291413 -6.832194254169085 1.3059334548804689 0 0 0
362 1 -5.364268817691414 -7.0567822600242645 2.793019290586283 0 0 0
33 1 -5.459691525996677 -5.945978691351092 0.571077745675499 0 0 0
185 1 -3.7748508539445567 -7.670509670948024 0.49344524407759494 0 0 0
454 1 -2.949833295100756 -5.930378096450104 1.9803496424188207 0 0 0
456 1 -1.359506254320367 -7.845182595115232 1.8203037274547107 0 0 0
438 1 -0.528599932792492 -6.107613049361029 3.473482853401638 0 0 0
376 1 -13.38087412800002 -3.1633823238531438 0.5278121396039843 0 0 0
379 1 -11.011105451524267 -3.24367809313096 2.0916826123553953 0 0 0
380 1 -13.30569540703514 -4.2239357091945084 2.753493404851426 0 0 0
4 1 -11.597792859565065 -5.081491209786579 0.49212322263817754 0 0 0
385 1 -9.332892699669621 -5.077284862343719 1.6926142145039496 0 0 0
383 1 -7.165200690426104 -4.282876484040335 0.8991820359877547 0 0 0
342 1 -8.524466901583224 -3.441094533216571 3.321185462198031 0 0 0
351 1 -6.93179435570225 -5.344166658883712 3.186793105077939 0 0 0
390 1 -4.776976766030588 -4.313848845221159 2.2852942481751946 0 0 0
389 1 -2.477847630816914 -3.2918111110149297 1.5188335465505816 0 0 0
453 1 -0.8792982032414152 -5.051363182167009 1.1432728781084158 0 0 0
288 1 -13.715775236997006 -10.792085070603902 5.954623020392212 0 0 0
378 1 -12.692507170890353 -1.3999368503905245 2.1591955507798204 0 0 0
927 1 -10.476001875959785 -0.5452492334104644 1.3982000001881136 0 0 0
377 1 -8.888005506888295 -2.3774592645618693 1.0489890281070675 0 0 0
340 1 -8.122889298130467 -0.5589285337005201 2.8487312587268185 0 0 0
384 1 -6.365867696841082 -2.4922459616913883 2.469888949084009 0 0 0
381 1 -4.2167827867948215 -1.5399639623076684 1.6972132573909562 0 0 0
392 1 -6.745682439761218 -1.2972080778469337 0.34262332343709545 0 0 0
393 1 -2.05275319219645 -0.5921811555364123 0.9952672404136251 0 0 0
1240 1 -0.42546917141244656 -2.318647133589474 0.6478117923171496 0 0 0
387 1 -1.7661546515745545 -1.595218423015389 3.1981308777154673 0 0 0
278 1 -11.967362160071232 -12.44718329472629 5.743163181318959 0 0 0
428 1 -9.80280914135124 -11.748173785234293 4.788470890769727 0 0 0
862 1 -8.160902161769668 -13.466701969638207 4.475097598334838 0 1 0
411 1 -7.299500473279244 -11.721825164017744 6.153535858474992 0 0 0
427 1 -6.1188292654192535 -12.408775513991566 3.681144755509621 0 0 0
870 1 -5.867564285927392 -13.553113494852141 5.966483117747259 0 1 0
433 1 -3.8130853920865597 -12.505766868626878 5.117482555860683 0 0 0
432 1 -1.5774376902739302 -11.521384949769644 4.441952280167428 0 0 0
434 1 -1.1815997538728809 -12.664556679405104 6.557470100948944 0 0 0
275 1 -11.588792340886485 -9.881599433017598 5.260882919380673 0 0 0
315 1 -6.707211412872245 -5.917359347793285 13.737096582881207 0 0 0
263 1 -9.54975420638376 -8.987696014305353 4.317787255450543 0 0 0
274 1 -7.785599658368471 -10.691637828329641 3.926316815085027 0 0 0
280 1 -9.120742854004714 -9.917838148052248 6.555039215537256 0 0 0
273 1 -6.940874716071017 -8.918646950319548 5.7073002854871575 0 0 0
426 1 -5.266272345022257 -10.663246927891013 5.4348536653348205 0 0 0
425 1 -3.0997720208519546 -9.749238859280961 4.787122107655499 0 0 0
446 1 -1.0835647107683464 -8.686283385476685 4.002270763986921 0 0 0
430 1 -0.7443331434499232 -9.815355707555218 6.1616172911111455 0 0 0
431 1 -2.8850403971188534 -10.7254772234372 6.8879517024965615 0 0 0
255 1 -11.113183335162264 -7.115470589239114 4.755060671066879 0 0 0
264 1 -13.272620070267813 -8.193488243497455 5.450362143788286 0 0 0
262 1 -10.779599958436624 -8.114993843032778 6.873111311672222 0 0 0
363 1 -7.438342249430461 -7.962527041173952 3.6219037813886246 0 0 0
352 1 -9.10600178738874 -6.097488565992875 3.8306062265216276 0 0 0
261 1 -8.619717769056685 -7.180440171943498 6.033037565882385 0 0 0
361 1 -6.557938697854932 -6.351188985597521 5.2380900532101045 0 0 0
272 1 -4.872387608109074 -7.9193910145735895 4.936740458745607 0 0 0
270 1 -4.119820961940553 -6.313856151368741 6.666108183150797 0 0 0
439 1 -2.691973904733251 -6.868715940641771 4.142797263700942 0 0 0
423 1 -2.3341009557414996 -8.071506265947306 6.421489213495164 0 0 0
445 1 -0.21199337200093282 -7.0583672706336085 5.747206692143095 0 0 0
254 1 -12.84239482765592 -5.435056974468841 4.9960384335238075 0 0 0
343 1 -10.764310089448625 -4.2767363324503265 4.115029881104352 0 0 0
306 1 -12.133734885841125 -3.6932212101391944 6.544521959044577 0 0 0
253 1 -10.41356786846158 -5.482268660975635 6.319383576018911 0 0 0
350 1 -8.406454462050053 -4.588498705958248 5.518523852030615 0 0 0
349 1 -6.202030392331803 -3.475974564097129 4.773991164906459 0 0 0
360 1 -4.431053986962755 -5.216516512000881 4.45427627976138 0 0 0
359 1 -3.556935736800643 -3.496769745483773 6.194436235293775 0 0 0
269 1 -5.793804720180146 -4.557267709540257 7.043420348642165 0 0 0
452 1 -2.286876364829485 -4.395489588791161 3.657528417247189 0 0 0
437 1 -1.9907294934443343 -5.317483590548379 5.938400483371996 0 0 0
249 1 -12.54956735383678 -2.546692503591615 4.370953466569784 0 0 0
251 1 -11.593528958855114 -0.8733466703597053 6.02523184891961 0 0 0
1335 1 -13.749821092569869 -1.9342808450347118 6.766280322691774 1 0 0
341 1 -10.25620641914082 -1.5440129668827876 3.641419360380887 0 0 0
348 1 -7.817027014920445 -1.7136348547318558 4.932179120673435 0 0 0
252 1 -10.017199482103083 -2.7173790051689775 5.782022312077974 0 0 0
347 1 -5.664400672948531 -0.6558262609427814 4.178030886488557 0 0 0
388 1 -4.035245676131616 -2.6285013491179416 3.934049296859495 0 0 0
357 1 -5.370204865967944 -1.7515650744314968 6.384312191944932 0 0 0
358 1 -1.4194134057342769 -2.6300691095889785 5.299169687384662 0 0 0
386 1 -3.21364385975272 -0.7872452440669093 5.573922824522651 0 0 0
242 1 -0.5733914122271973 -0.8258221304152933 7.057334992832317 0 0 0
770 1 -11.643436543934111 -13.424491412689026 7.979513718317552 0 1 0
317 1 -13.361312581558945 -11.788506802726273 8.18887226120044 0 0 0
310 1 -10.833590835225356 -11.876442112197541 9.621293128600563 0 0 0
309 1 -13.0655837170732 -12.77208692054528 10.480984304260009 0 0 0
412 1 -9.413974263002752 -12.63143136017335 7.065611302405262 0 0 0
773 1 -9.193873272657363 -13.60031838797815 9.239270589666159 0 1 0
410 1 -7.0928954624762435 -12.71020263793761 8.40780706028917 0 0 0
409 1 -4.913386033880521 -11.785709195846167 7.709283902936303 0 0 0
415 1 -4.530493969571845 -12.814932387528858 9.792112183418904 0 0 0
416 1 -3.2449316651822464 -13.524150511094478 7.293396354039793 0 0 0
1180 1 -0.7306861066330939 -13.54642628192073 8.709227259519402 0 0 0
414 1 -2.5449892514549113 -11.803886438195374 8.967334443438315 0 0 0
290 1 -12.922219141994406 -9.06618885661672 7.772998513315397 0 0 0
279 1 -11.061852210257623 -10.887323035968512 7.385171936419738 0 0 0
319 1 -12.6278100094409 -10.226337408669718 9.950513953889818 0 0 0
291 1 -10.470815273457637 -9.243887645740159 9.039060037273902 0 0 0
281 1 -8.652031027330736 -10.97078487336936 8.667432973829644 0 0 0
424 1 -4.529724076832258 -9.078700893315265 7.231803807096004 0 0 0
282 1 -6.657094686738257 -10.004072510935671 7.97978044309361 0 0 0
408 1 -4.2955229846480005 -10.032570798812712 9.376570362042536 0 0 0
399 1 -6.4379762269477965 -10.958142984791849 10.084475082478185 0 0 0
407 1 -2.014845270598954 -9.174864621223687 8.642550710831859 0 0 0
1189 1 -0.2421216091887608 -10.82610489759297 8.25360562647326 0 0 0
300 1 -12.480078988807879 -6.379040287120104 7.168522911929674 0 0 0
293 1 -12.127113978025397 -7.421716858048152 9.360601210046067 0 0 0
292 1 -8.40543684360486 -8.285473338206845 8.285256191564915 0 0 0
260 1 -10.09741971777293 -6.410936104219546 8.590801808391571 0 0 0
323 1 -7.68763128781228 -6.5546287322551375 10.021716901858937 0 0 0
283 1 -5.961566362296187 -8.40559564909092 9.69722010315271 0 0 0
271 1 -6.235020967864119 -7.322060037551891 7.455951370878481 0 0 0
284 1 -3.757371906903419 -7.430456938721656 8.896697253419305 0 0 0
422 1 -1.640609754673969 -6.418921044361421 8.128522316215232 0 0 0
405 1 -1.3522588149153538 -7.548924524740935 10.257047682265004 0 0 0
302 1 -11.791716276099343 -4.676655958391377 8.83197573554029 0 0 0
307 1 -13.481416042941278 -2.9211249515336597 9.086138266869472 0 0 0
259 1 -7.899576981647156 -5.517557440614723 7.639282678854357 0 0 0
248 1 -9.59174269254567 -3.769912062334342 7.949298197700305 0 0 0
295 1 -9.40979642887316 -4.737703411601572 10.258006446294242 0 0 0
258 1 -7.127578244752729 -3.8208398396542016 9.42188115764663 0 0 0
294 1 -5.63416492622569 -5.783690899641854 9.165693861254493 0 0 0
268 1 -3.4732205716860367 -4.631669397536097 8.398380641021248 0 0 0
435 1 -1.2392542900310168 -3.6223141256482645 7.517283344813507 0 0 0
420 1 -0.9717410950736358 -4.653621666493789 9.70334494250977 0 0 0
234 1 -2.6555030350694295 -2.84679258749237 9.971956912738534 0 0 0
246 1 -11.203704724627777 -1.977456555192795 8.229181933348144 0 0 0
303 1 -10.562752716947937 -0.1721710655937141 9.87449017093855 0 0 0
257 1 -7.521038535778318 -2.786831744894698 7.069399716043023 0 0 0
247 1 -8.995862396111868 -0.9815080219518464 7.481999936254805 0 0 0
304 1 -8.928943104748921 -2.131027863601851 9.6487450866675 0 0 0
267 1 -5.062391226494066 -2.7639855730244474 8.460919455389444 0 0 0
256 1 -6.842687034993977 -0.9763167965947837 8.868992424653396 0 0 0
231 1 -4.202730491517833 -1.1645845134472523 10.187867723709282 0 0 0
239 1 -1.9953976301382177 -0.10091744196001962 9.476049738529625 0 0 0
240 1 -2.8880786380544414 -1.7630752614769811 7.757762748340337 0 0 0
1320 1 -0.4662393086621446 -2.0216042054587717 9.116104739156246 0 0 0
723 1 -12.69811084142899 -13.929583582911896 12.647236905159119 0 1 0
371 1 -10.667814284679586 -12.874159913091118 11.824259887220176 0 0 0
318 1 -12.404457043289014 -11.23653345309255 12.123698111422652 0 0 0
398 1 -8.460609899998282 -11.81249083021335 10.962062313614584 0 0 0
369 1 -8.138304921820087 -12.83783994656333 13.086565875692454 0 0 0
372 1 -10.002458469456087 -11.26937083221774 13.559661416341356 0 0 0
783 1 -6.654216556267955 -13.627297881652394 10.565705901289132 0 1 0
419 1 -5.931557323473939 -11.938619182614094 12.21910937002972 0 0 0
736 1 -4.1880148489654125 -13.80700756438632 11.868786578842862 0 1 0
397 1 -3.372625034635412 -12.04883926924592 13.582582739553615 0 0 0
396 1 -2.073427040599146 -12.888799824332729 11.14608305066863 0 0 0
1172 1 -1.6755723732978254 -13.869301158322667 13.304806703491707 0 0 0
901 1 -12.998026869643288 -0.1627117529781259 8.366323611461379 0 0 0
311 1 -10.375094639570403 -10.220617646030247 11.39913772962015 0 0 0
312 1 -8.154465219613689 -9.255260190449526 10.476414056252487 0 0 0
370 1 -7.845680516257065 -10.178390735879518 12.713097094049651 0 0 0
373 1 -9.58103512122034 -8.489833216090858 12.94027485558842 0 0 0
394 1 -3.804865558819337 -11.100378310366546 11.508549314404032 0 0 0
400 1 -5.585176665301889 -9.418869281129695 11.835546995653917 0 0 0
406 1 -3.4624178396307155 -8.338460489716908 11.037160819188344 0 0 0
1174 1 -1.3243152172873813 -11.201917446535525 12.985425653002778 0 0 0
402 1 -3.276762912138187 -9.430449273981502 13.277092747471173 0 0 0
401 1 -1.7235106180720923 -10.276402324715562 10.765219626032884 0 0 0
327 1 -13.808427971207038 -6.5950250052705535 11.903975010902055 0 0 0
326 1 -12.010757094204447 -8.435913260622401 11.587923573323934 0 0 0