LAMMPS data file via write_data, version 2 Aug 2023, timestep = 0, units = metal

1871 atoms
3 atom types

-14.505810882112742 14.505810882112742 xlo xhi
-14.395469362140835 14.395469362140835 ylo yhi
-13.15745020868706 13.15745020868706 zlo zhi

Masses

1 55.847
2 1.008
3 1.008

Atoms # atomic

1286 1 -9.334467190547851 -9.512454360474283 -9.847219328357621 0 0 0
1295 1 -10.967475616410717 -11.049486808256331 -11.167559698571969 0 0 0
1284 1 -12.247379273375563 -9.46031894432989 -9.731459919328204 0 0 0
1490 1 -12.35890592240565 -12.198558222783356 -9.47545822885522 0 0 0
1491 1 -10.731620144567186 -10.811119623657586 -8.315210152043955 0 0 0
1489 1 -13.615089022950515 -10.71419924347563 -8.042559709822545 0 0 0
1492 1 -10.666553198297656 -13.618643658563027 -7.932525343014112 0 0 0
214 1 -12.556203600503723 -12.573780349363247 -12.111595856034832 0 0 1
1493 1 -9.298487001425453 -12.366888944315672 -9.564257772935841 0 0 0
1293 1 -13.865405482088992 -10.964380029735779 -10.929215553016025 0 0 0
1792 1 -13.970130238791032 -13.99884450443896 -10.624607468243758 1 0 0
1501 1 -10.880437422673367 -13.806030700597937 -10.778446415962023 0 0 0
1287 1 -9.51269480357405 -9.56210085013042 -12.590006790802263 0 0 0
1296 1 -9.502932488539065 -12.552683196603471 -12.424336200849265 0 0 0
1294 1 -12.61856466115921 -9.653259481195262 -12.5047467029807 0 0 0
1134 1 -13.664341814864754 -13.613031777872544 -7.781302911991532 1 1 0
1288 1 -7.9713310336409755 -11.05807033147438 -11.338110640973994 0 0 0
1290 1 -6.582189740100512 -12.56928583820803 -12.665880210957237 0 0 0
1495 1 -6.496280619250896 -12.36374187324261 -9.803557652091635 0 0 0
1497 1 -4.980719255157474 -13.80053229506663 -11.19742798289578 0 0 0
1475 1 -7.830614631378404 -10.803036231997027 -8.495255584663987 0 0 0
1477 1 -4.81097342526758 -10.713826785299364 -8.84187892891325 0 0 0
1478 1 -5.152468797710133 -11.120149674581477 -11.625696256753569 0 0 0
1657 1 -4.878102295141723 -13.646984142128792 -8.563696228541012 0 0 0
1494 1 -7.744838293648559 -13.707393311246527 -8.17023988628305 0 0 0
1476 1 -6.475829386770398 -9.635751163456423 -10.204416423282726 0 0 0
1502 1 -8.004866720135364 -13.897243171387444 -11.078871473186656 0 0 0
1459 1 -3.625765587286823 -9.471174609678135 -10.460735874963243 0 0 0
1479 1 -3.571515731657426 -12.382008796601394 -10.179740347643127 0 0 0
1289 1 -6.614945859517563 -9.586362933503295 13.086333227725039 0 0 -1
1658 1 -3.2227582945056064 -9.288499930641496 -7.739144660219945 0 0 0
1480 1 -2.339747737147862 -11.211284401085129 -11.93944692335831 0 0 0
1481 1 -0.7439915279606666 -12.45086688977435 -10.741666639729578 0 0 0
1499 1 -2.299723123140181 -13.952482611006468 -11.60076681123736 0 0 0
1482 1 0.48886315783617285 -11.281956807287546 -12.344233478525897 0 0 0
1660 1 -1.931099667675726 -10.964858089874836 -9.141177207630376 0 0 0
1659 1 -2.0541269400208346 -13.717982747145292 -8.762536193030847 0 0 0
1461 1 0.847949410303551 -11.043281175777274 -9.604997279318233 0 0 0
1661 1 0.8362490288380382 -13.867508198594335 -9.228759372397105 0 0 0
1460 1 -0.9187851442124693 -9.549879191664896 -11.054701560118808 0 0 0
1638 1 -0.36913212322614974 -9.345188536119482 -8.228956312889483 0 0 0
1463 1 1.9978537384119246 -9.707952918275293 -11.261240166519014 0 0 0
1500 1 0.42612143512817724 -14.182791439436226 -12.072789255131898 0 0 0
1787 1 -0.31675681622228424 -12.221733777620521 -7.8702960066168925 0 0 0
1677 1 2.1224377492681494 -12.693909258356266 -11.012127694955021 0 0 0
1642 1 2.483912796045564 -9.456465471600207 -8.481712751341338 0 0 0
1641 1 2.36478366406663 -12.27543738192967 -8.1411557744301 0 0 0
1484 1 4.769077354370031 -9.770099984247654 -11.560606729383492 0 0 0
1664 1 4.789776888992266 -12.680752742607153 -11.411141835804292 0 0 0
1465 1 6.463809553690881 -11.03243312738727 -10.29910661931794 0 0 0
1643 1 5.248850514291879 -9.580731004827664 -8.831736371100863 0 0 0
1662 1 3.5612134287653188 -11.156186634073313 -9.9387163934428 0 0 0
1663 1 5.283942282445006 -12.33855492342552 -8.560961263568208 0 0 0
1022 1 3.687443961540067 -13.951332705951 -9.557757623718858 0 1 0
207 1 3.1536548253717296 -11.281654132744029 -12.772428321018271 0 0 1
1024 1 6.631574041939475 -13.960226321057537 -10.051360393772681 0 1 0
1483 1 3.230215859615173 -14.254201550745131 -12.407430043168366 0 0 0
1485 1 6.108106074572861 -14.270758284557271 -12.869966833688514 0 0 0
205 1 6.210344106478944 -11.13323510796273 -13.064129206599238 0 0 1
1666 1 7.649174426346674 -12.631995269965039 -11.81858309740923 0 0 0
1486 1 7.870038772357345 -9.777866932949202 -11.939277938433856 0 0 0
1646 1 7.98390355214063 -9.565098617723136 -9.197867710189604 0 0 0
1645 1 8.039043392791696 -12.318988433156301 -8.955241793805916 0 0 0
1467 1 10.829903094901313 -9.602531435226663 -9.288842188024807 0 0 0
1487 1 9.30593337686774 -11.071970138545762 -10.581451621467092 0 0 0
1488 1 10.625797660911028 -9.71621571420191 -12.10622104330622 0 0 0
1647 1 10.923606337791663 -12.318541716040379 -9.04301797546566 0 0 0
1649 1 12.280339541464995 -10.932269028365681 -10.543072511173431 0 0 0
1665 1 10.624556818287116 -12.61081802847339 -11.902289297350727 0 0 0
1026 1 9.277818904893637 -13.915249534478836 -10.27534911879474 0 1 0
1667 1 12.149410929803844 -13.848755855375478 -10.471569865898749 0 0 0
1775 1 12.44335552921729 -10.705870589697923 -7.832678036166989 0 0 0
959 1 9.021017441144684 -14.230296400241588 -13.095781770417005 0 1 0
1773 1 9.532239748356558 -10.709396629666829 -7.615286886110432 0 0 0
1668 1 13.338149723156155 -12.679313849361389 -12.164965040114252 0 0 0
1648 1 13.48801352930346 -9.632837895461503 -12.281254843142564 0 0 0
1627 1 13.98497516097599 -9.436066208575077 -9.338971428595718 0 0 0
1774 1 13.961173398556772 -12.239268636855082 -9.298026047939107 0 0 0
1285 1 -10.897834911889962 -8.289430122014897 -11.306145671393931 0 0 0
1472 1 -10.622513378814752 -7.876290985724554 -8.342267091260322 0 0 0
1124 1 -12.336640928919742 -6.520864813962781 -12.519782436401385 0 0 0
1273 1 -9.394171203218153 -6.67176512068645 -10.164760426695322 0 0 0
1271 1 -10.530362144753878 -5.080177866303593 -8.70760203780814 0 0 0
1283 1 -12.172105520361086 -6.610925701189433 -9.807381156457728 0 0 0
1274 1 -10.860033495411276 -5.240721489751472 -11.396784775636034 0 0 0
1272 1 -13.594444433448952 -5.051699115647583 -11.14623975533098 0 0 0
1470 1 -13.47829022676313 -7.9573745377532665 -8.255707290858616 0 0 0
1608 1 -13.616815301390163 -4.983477320771424 -8.496319982133091 1 0 0
1755 1 -13.80746796971141 -8.142532293165825 -10.997423234199092 1 0 0
1255 1 -12.08465336598019 -3.5978141594953073 -10.000701682778036 0 0 0
1257 1 -9.210556374393562 -3.7909968225710493 -10.602312016716947 0 0 0
1256 1 -9.120555289573225 -3.533366097318739 -7.590433080425395 0 0 0
1126 1 -12.233025670493504 -3.7000985444443604 -12.866541519701514 0 0 0
1474 1 -7.793919981565968 -8.035525935017024 -8.8202575235616 0 0 0
1454 1 -7.729960774511325 -5.132141544492278 -9.179329675819165 0 0 0
1275 1 -7.941360876971221 -8.219928091047157 -11.719797706605426 0 0 0
1277 1 -5.229002567415742 -8.292776757379245 -11.998533629287358 0 0 0
1120 1 -8.023524217162015 -5.443164056422617 -12.063119571614159 0 0 0
1122 1 -5.32569690776935 -5.467322161317462 -12.361511315233566 0 0 0
1456 1 -6.47543121392779 -6.651711343507668 -10.598464240971715 0 0 0
1457 1 -4.872428384723619 -7.999815847814772 -9.092516551550707 0 0 0
1436 1 -4.989670280188017 -5.1198649157290905 -9.495898674825726 0 0 0
1258 1 -6.286150902850952 -3.618101793398134 -7.918597725074294 0 0 0
1259 1 -6.54583916317521 -3.8107968044671274 -10.932482575753816 0 0 0
1261 1 -3.638990272727341 -3.876789557977588 -11.251161711382451 0 0 0
1260 1 -3.727619664547152 -6.772433149529139 -10.88704505150211 0 0 0
1455 1 -6.172035839142611 -6.443163929681501 -7.807456290242895 0 0 0
1437 1 -3.4742968465721766 -3.603919897247703 -8.409978708952252 0 0 0
1438 1 -3.279491535484837 -6.444120363892979 -7.936053587198849 0 0 0
1281 1 0.2738252086794706 -8.434764380087675 -12.710970459855645 0 0 0
1278 1 -0.9000836290822694 -3.988912134374292 -11.52627811685489 0 0 0
1279 1 -2.4791742922222593 -8.284790934429257 -12.327058626324586 0 0 0
1458 1 -2.1695812604027775 -7.99907021748886 -9.490058692067583 0 0 0
1262 1 -0.8550861951024835 -6.849642996998449 -11.25941475473082 0 0 0
1441 1 0.8407915506852355 -5.415294223944008 -10.166331538436824 0 0 0
1439 1 -2.184820277265679 -5.2456317130942995 -9.826117943014307 0 0 0
1462 1 0.7826343021207673 -8.035708251131522 -9.811913428322399 0 0 0
1440 1 -0.6145346835999295 -6.5368603398466 -8.379336098688132 0 0 0
1280 1 1.9100008030571285 -4.070634587405786 -12.077740757403774 0 0 0
1400 1 -0.647398331059108 -3.727261117588837 -8.84571371504951 0 0 0
180 1 -2.567127565374383 -5.454165352607099 -12.661892245999379 0 0 1
1264 1 1.9374874722151016 -6.936516675087788 -11.751221494683302 0 0 0
178 1 0.20400511050984704 -5.609149047240866 -12.972442480159062 0 0 1
1421 1 2.2530099919920747 -3.797775570285843 -9.029949030577502 0 0 0
1442 1 2.331001641644546 -6.639028872156899 -8.705839527322741 0 0 0
1464 1 6.3550294765635496 -8.16873330414624 -10.514756774950364 0 0 0
1282 1 4.800339330852212 -6.912513314855708 -12.008261818251407 0 0 0
1265 1 4.584491154611241 -4.18093958631691 -12.31909977696104 0 0 0
1266 1 6.321013568059017 -5.300248003638451 -10.71482994561317 0 0 0
1443 1 3.466331553306743 -5.330040873692882 -10.517814969041087 0 0 0
1444 1 3.608479153227046 -8.12757277065345 -10.263601755047784 0 0 0
1424 1 5.103122690954402 -6.5855500338332735 -9.119159187639362 0 0 0
1268 1 7.320325850546245 -7.392266521140405 -12.493586587737529 0 0 0
1423 1 5.061490056173641 -3.801130585764229 -9.305704472898508 0 0 0
1604 1 6.634773043486549 -5.0834020760372365 -7.847533942685747 0 0 0
33 1 6.986455715457483 -4.703463620876326 -12.961336652332477 0 0 1
1422 1 3.8014586265399632 -5.038564718470088 -7.605853949345354 0 0 0
1623 1 6.634168925853489 -7.921366628815579 -7.827070086102885 0 0 0
1445 1 7.9445938232256825 -3.8739651509538575 -9.400590636821793 0 0 0
1250 1 8.25909978379959 -3.3012446498501102 -11.821722439723352 0 0 0
1447 1 8.583624537282907 -5.691822833863995 -11.534295402053822 0 0 0
1446 1 8.12717854290131 -6.518317520257418 -9.361611906735952 0 0 0
1466 1 9.423624514430488 -8.180980228477782 -10.716496622910821 0 0 0
1448 1 12.352444852747768 -8.101662478941051 -10.854594822199537 0 0 0
1607 1 12.507585139257989 -7.946688214143323 -8.132697984684496 0 0 0
1269 1 11.168030314710725 -6.119346761149764 -11.91314218730146 0 0 0
1426 1 9.703509364517336 -4.978394944628537 -7.959927450622421 0 0 0
1606 1 12.58796494732861 -4.9417390779266 -8.318079877140123 0 0 0
1626 1 11.031144205924443 -6.688251523302612 -9.490530510014642 0 0 0
1427 1 10.101942667168418 -4.658312251971401 -10.346267339992997 0 0 0
1625 1 9.55780548539378 -7.909636821482453 -8.015622027450611 0 0 0
1428 1 12.812649013699206 -4.858611684572017 -10.804980409591726 0 0 0
1232 1 11.335059988527279 -3.4212549106366126 -12.218017567515071 0 0 0
1408 1 11.350775025471668 -3.1251730515200737 -9.32469422652269 0 0 0
34 1 9.762326449132784 -7.625875194750885 -13.016982319009859 0 0 1
1449 1 14.002986577731766 -6.459212875695212 -12.301096472593043 0 0 0
1628 1 13.93601476181651 -6.6277607911367395 -9.724696145113482 0 0 0
1429 1 14.015250842032179 -3.579054102749886 -12.4600599844105 0 0 0
1270 1 14.20214805293964 -3.4218089779079346 -9.745112627697939 -1 0 0
1116 1 -13.495774553370854 -2.205332588948796 -11.324873314303435 0 0 0
1105 1 -12.054220253447923 -0.742037551415967 -10.344403647376135 0 0 0
1106 1 -10.713375505856359 0.4486294984157748 -12.069889544206069 0 0 0
1107 1 -10.77663895372953 -2.477984072826011 -11.717957167198485 0 0 0
1253 1 -13.323708092215325 -2.0498883654242412 -8.555892088210314 0 0 0
1237 1 -10.491211698971487 0.8608192448160441 -9.268016092664283 0 0 0
1235 1 -13.46942662346437 0.8910904571972882 -9.04003721728441 0 0 0
1011 1 -13.421040837229558 0.7501117507167621 -11.827709891326576 0 0 0
1238 1 -10.428369040945856 -2.14799599333978 -8.977747305678736 0 0 0
1108 1 -9.199688191801041 -0.811931869686255 -10.823629347077883 0 0 0
1092 1 -9.05028584638237 1.8223808993923232 -10.919224798817837 0 0 0
1090 1 -12.004489138605111 2.1748346705301085 -10.73433400209139 0 0 0
1218 1 -8.993694578628471 -0.7422589040124308 -7.925040307559227 0 0 0
1216 1 -11.945116150842047 2.2351502102489444 -7.886058728951408 0 0 0
1217 1 -9.114973915883063 2.330663885885288 -8.187203845267144 0 0 0
1236 1 -11.930507037136628 -0.4849891505828676 -7.687015126813451 0 0 0
1117 1 -12.145047054106234 -1.037792615927918 -13.0300931191835 0 0 0
165 1 -5.386486127464311 -2.5344533782154635 -12.663340743273679 0 0 1
1109 1 -4.911785905933192 0.35880599813256 -9.871504839632275 0 0 0
1119 1 -6.518442565486998 -0.7540022266483408 -11.180888137380894 0 0 0
1110 1 -3.622601619587911 1.6797709581275324 -11.896664166755537 0 0 0
1009 1 -6.518693295881 1.745784207699634 -11.393556811765732 0 0 0
1240 1 -7.804632446781817 -2.3503627828986637 -9.284757323370211 0 0 0
1239 1 -7.75243902836161 0.5376156523978661 -9.500254531786986 0 0 0
1242 1 -5.024509912959184 -2.33333199037717 -9.792393344510867 0 0 0
1121 1 -3.8842202467244675 -1.09934028234081 -11.587654471022589 0 0 0
1220 1 -6.205015430417646 -0.7298570348241782 -8.253120492192588 0 0 0
1118 1 -8.22583058171682 -2.4099605025148847 -12.320886767609329 0 0 0
149 1 -8.196063880129 0.34765418756275857 -12.717742733103881 0 0 1
147 1 -5.445517496930133 0.17147054923588279 -13.112188943444583 0 0 1
1219 1 -6.3447257403940505 2.1925456932468155 -8.438603238404426 0 0 0
1241 1 -3.5221259296612715 1.9505895537507225 -8.917402795227705 0 0 0
1222 1 -3.510100688989125 -0.9226747111910161 -8.431132302807843 0 0 0
1263 1 0.6224157392656835 -2.4451608249288643 -10.474097445739153 0 0 0
1111 1 -2.2778356842925866 0.38914419088396635 -10.371999163489162 0 0 0
1113 1 -0.9275093542714394 -1.2422348500401714 -11.920278383323346 0 0 0
1244 1 -2.2537459066124157 -2.3405888512767294 -10.089592953989547 0 0 0
1112 1 -1.0500072624146721 1.7639105310263243 -12.27379840645281 0 0 0
1243 1 0.46756295188315455 0.3906901457212122 -10.754623142051724 0 0 0
1224 1 -0.7425578849056489 -0.83446209607105 -9.015227985333635 0 0 0
1223 1 -0.6128333847900507 2.019458672757386 -9.140971464119204 0 0 0
1098 1 1.8657146165026095 1.6542532055445793 -12.556372430403421 0 0 0
1114 1 1.7487570520302658 -1.2421817719502037 -12.126355432129317 0 0 0
1204 1 0.9344102585593532 0.6575014558161989 -7.770830308596439 0 0 0
163 1 -2.6550382629932407 -2.6109741390737593 -12.96451946314331 0 0 1
1245 1 2.1881313079923057 -0.9032085547554267 -9.26007004811526 0 0 0
1225 1 2.1258638716218723 1.8301247203232958 -9.786380867117703 0 0 0
1399 1 -2.0042945382469153 0.689875178121051 -7.461807406849694 0 0 0
1248 1 6.139177294872324 -2.6081086645249165 -11.196637621818823 0 0 0
1246 1 3.3434669749558044 -2.4482673133808657 -10.750491728773007 0 0 0
1100 1 3.3784232737360416 0.19231149900164723 -11.171191941299327 0 0 0
1228 1 6.630690315791069 0.5422315010989962 -8.588859667996957 0 0 0
1247 1 5.035388462830811 -0.9585189088510404 -9.648386225494182 0 0 0
1102 1 6.246559718470076 0.20868913270692246 -11.4687531374623 0 0 0
1226 1 3.794074439970343 0.6062059140921114 -8.258710161365265 0 0 0
1267 1 4.62693596304757 -1.4979146462076969 -12.724992777199953 0 0 0
1227 1 5.10636809824698 1.8230356875427507 -9.940992410749942 0 0 0
1404 1 6.646882153197696 -2.089445312180704 -8.225098802073422 0 0 0
28 1 4.570234769430831 1.4123764119483067 -12.85066405339821 0 0 1
1402 1 3.7870975660382573 -2.316796530338838 -7.983724867723669 0 0 0
31 1 7.383568564251453 -1.251888739198467 -12.866347127398768 0 0 1
1249 1 7.832196537443538 -1.0239065012940571 -10.064594522676316 0 0 0
1229 1 7.89897091258638 1.8050363561538507 -10.242432447240425 0 0 0
1425 1 9.44407678932451 -2.1065581186701507 -8.428310771783142 0 0 0
1405 1 9.394763667576905 0.4532676106587772 -8.793224255588854 0 0 0
1230 1 9.90084751495891 -1.9563729987711778 -10.853107790882728 0 0 0
1103 1 9.069307474031893 0.2821486208738051 -11.779659800339852 0 0 0
1231 1 11.183617951897338 -0.5491319165951545 -12.376286340682828 0 0 0
1407 1 11.256975843530972 -0.46707985899168136 -9.869472512867937 0 0 0
1210 1 10.673091473720786 1.8776729870623807 -10.432186659623504 0 0 0
1212 1 12.717106290528024 0.9035961135804467 -11.590273916719998 0 0 0
1409 1 12.711769870646831 -1.9852466962542792 -11.015608339103022 0 0 0
1387 1 12.711981953981072 0.9981360120119049 -8.874827780278435 0 0 0
1388 1 12.897097327684447 -1.785647647597406 -8.405856266766513 0 0 0
1385 1 11.187444424053664 2.188139344463506 -7.5662251098344315 0 0 0
1115 1 14.28603266360921 -0.46503065490822415 -10.229755629392333 -1 0 0
1233 1 14.05127603346301 -0.7545881704114361 -12.768464706967304 0 0 0
1010 1 14.189842413528774 2.000206370192876 -13.101560939047918 -1 0 0
1368 1 14.093683137204339 2.3923283723725017 -7.707322431152054 0 0 0
995 1 -12.060828065528476 5.025213694047265 -10.936437378493101 0 0 0
1005 1 -13.36116714535901 3.6768634833993143 -12.140312369467633 0 0 0
1091 1 -10.499857319437336 3.560766320889039 -9.568371058834611 0 0 0
953 1 -13.492429676478205 6.411769597628835 -12.574198452405152 0 0 0
996 1 -10.796658678958934 6.273277637721941 -12.714464351804963 0 0 0
1073 1 -10.622291892224322 6.479069714698481 -9.821411127632464 0 0 0
1007 1 -10.505641587472098 3.213501234915393 -12.447328316134508 0 0 0
1215 1 -13.499667851254955 3.7273356104079856 -9.310628622698122 0 0 0
1072 1 -12.006740680505617 5.2253335165907995 -8.254152116229493 0 0 0
1004 1 -13.56866857781007 6.4530296325116705 -9.726337090849912 0 0 0
997 1 -9.304293023580883 4.926262708820923 -11.266534614105158 0 0 0
981 1 -12.205372665749909 7.880126750813291 -11.291823948077024 0 0 0
1074 1 -9.054012491206525 5.060497871421644 -8.41384773554234 0 0 0
983 1 -9.379574820586171 7.849459467307012 -11.592608915588423 0 0 0
1089 1 -12.106797285220914 7.935051889652728 -8.536266050643434 0 0 0
1053 1 -9.147512898077697 7.907666885647268 -8.64900209284864 0 0 0
1094 1 -4.963990962694936 3.2984203595515833 -10.344506671768139 0 0 0
999 1 -4.949827247093481 6.154152947523594 -10.557515544805756 0 0 0
1008 1 -6.623230363338139 4.621151685437242 -11.800751101005735 0 0 0
1075 1 -7.799047129906006 6.3106042822300115 -10.208704107870531 0 0 0
1093 1 -7.76352458302064 3.542710779005512 -10.007550314351958 0 0 0
1095 1 -3.877964121923128 4.608628567239437 -11.9651273771507 0 0 0
1000 1 -3.8608914270147885 7.417442662607181 -12.280148907797578 0 0 0
1199 1 -6.345031258846877 5.015311296169193 -8.745901226945502 0 0 0
985 1 -6.481093786156526 7.6117635591548005 -11.737980655497909 0 0 0
1057 1 -4.862389262832744 6.429185386321981 -7.666671005796452 0 0 0
130 1 -8.110359296253169 3.048813576964859 -12.911047818312133 0 0 1
1076 1 -3.4982725179512517 4.862196038735194 -8.88709797066971 0 0 0
1077 1 -3.5095999693090203 7.688036048901973 -9.317083599275765 0 0 0
1056 1 -6.253893545389772 7.778616240519403 -9.214825960336775 0 0 0
998 1 -8.022602353943924 6.392683690405674 -13.057894583827744 0 0 0
128 1 -5.351126347184023 2.841353701335974 -13.12145285756856 0 0 1
1096 1 -2.235712907214788 3.2550147333326453 -10.655405869050112 0 0 0
1080 1 0.53026183548522 3.1164569340876387 -11.064404392902318 0 0 0
1001 1 -2.3169032216176806 6.0646515582280305 -10.786904123478882 0 0 0
1078 1 -0.5819595823591079 4.790460869508076 -9.445447893084024 0 0 0
1061 1 0.9734216803627564 6.203740451706318 -8.521167926802367 0 0 0
1079 1 0.6023072057206136 5.932454511738287 -11.281512735994198 0 0 0
1203 1 0.95005469777999 3.4942941024383583 -8.1067334522921 0 0 0
1201 1 -1.9349858157133273 6.392661101726203 -8.016664098707725 0 0 0
1097 1 -0.9822061229158532 4.549975838102865 -12.395279273957758 0 0 0
24 1 1.7736773360747318 4.425272902702437 -12.776187127820785 0 0 1
1059 1 -0.6425525041994256 7.740402279835008 -9.840076301608482 0 0 0
1002 1 -0.9576711161167051 7.312495450184068 -12.540645719263367 0 0 0
1221 1 -2.016283248311238 3.476530525710027 -7.781741530755136 0 0 0
1081 1 2.0827300475932216 7.60400027704692 -10.141330616737001 0 0 0
1082 1 2.2534768599288295 4.672652912607999 -9.845860834159726 0 0 0
19 1 1.8529798270835816 7.381616848283466 -12.96308920981239 0 0 1
1099 1 3.3714395289259667 3.2359954605105816 -11.386854286563521 0 0 0
1101 1 5.037565654390013 4.575168172087656 -10.115021927057336 0 0 0
1063 1 3.8147652665652547 6.2325513721899295 -8.804426462161793 0 0 0
1083 1 6.278357286516334 6.011248771626262 -11.833059742466594 0 0 0
1084 1 6.19268455151523 3.180753498437211 -11.690796145779801 0 0 0
1187 1 6.658257733759447 6.143982708751684 -9.036463935766317 0 0 0
1205 1 3.7537270883855047 3.4335653058752253 -8.540822285549371 0 0 0
1207 1 6.658493012231224 3.345382873438565 -8.827480114079147 0 0 0
991 1 3.2469139412626564 5.971484688133609 -11.61406559639648 0 0 0
1064 1 4.9587858701711 7.578655862036021 -10.449977439240058 0 0 0
23 1 4.6165604076366105 4.3512789141971755 -13.057578251533938 0 0 1
1066 1 7.781154992311281 7.50939579474039 -10.680045720550927 0 0 0
1065 1 7.833331957284335 4.675844981247144 -10.523086511117857 0 0 0
1086 1 9.168176206475382 3.0638619182838784 -11.954922269236251 0 0 0
1087 1 12.280484249313092 3.410215520580058 -11.936630487830076 0 0 0
1209 1 9.5303128694991 3.5381219615810426 -9.039905836833864 0 0 0
1085 1 9.158373299536025 6.022295274410714 -12.069139010297903 0 0 0
1067 1 10.725011043183931 4.757235115895332 -10.813897207468774 0 0 0
1189 1 9.438778362641957 6.383773896245108 -9.287837095719459 0 0 0
1191 1 12.32001860187003 6.376182595716797 -9.5914684093812 0 0 0
1211 1 12.471953936626745 3.612718326876225 -9.283295603709075 0 0 0
1069 1 11.870954544323004 5.954318887547553 -12.42286381954959 0 0 0
1068 1 10.776204104834862 7.6771366236424345 -10.979028417952527 0 0 0
1190 1 11.137354383465548 5.124145984582777 -7.993968633641793 0 0 0
1170 1 10.9243407233232 7.954003658468073 -8.163709357685585 0 0 0
1188 1 8.2154637427083 4.955947713610749 -7.70077549859834 0 0 0
1168 1 8.122743621073832 7.904618379247543 -7.9272019187413445 0 0 0
1104 1 14.157333374755266 2.3915121161700608 -10.525989742319656 -1 0 0
1171 1 13.6905409969716 7.612127410017385 -11.224622382273001 0 0 0
1213 1 13.84919022059678 5.054024566614851 -10.875279515033085 0 0 0
1192 1 14.043206216189843 5.165389402159276 -8.073983101525226 0 0 0
1003 1 13.971355901856588 7.92050983372315 -8.440372526901369 -1 0 0
980 1 -12.249245706522895 10.807571098178444 -8.84995678013636 0 0 0
994 1 -12.492297422644778 10.458567871264721 -11.586554777380586 0 0 0
982 1 -10.737187726367623 9.30373622437992 -10.201492325814225 0 0 0
943 1 -10.80784299007783 12.012800128773923 -10.459863339799512 0 0 0
948 1 -12.433504566612559 13.398350297104932 -11.808183708465126 0 0 0
942 1 -13.955061598960157 12.006614844664691 -10.342311127306116 0 0 0
993 1 -13.83656743477493 9.333346643026614 -10.00342040037681 0 0 0
965 1 -10.681443030195993 12.254691817297802 -7.668292288930829 0 0 0
950 1 -9.466461951775477 13.334500616470491 -12.073083101292447 0 0 0
949 1 -11.062585837241137 9.152814412024755 -12.915290403386129 0 0 0
944 1 -9.339730052136353 10.544775522038487 -11.720933127404097 0 0 0
1054 1 -9.24220070749842 10.71161328602557 -9.069324347060338 0 0 0
1049 1 -14.067092541488318 8.974327558420145 -12.790669329871475 1 0 0
1029 1 -13.917031495196168 11.77692390864737 -13.080992446823767 1 0 0
73 1 -11.04054835494645 11.687071544658243 -13.101849224571762 0 0 1
945 1 -6.403643343834194 10.420660769512851 -12.002922464303117 0 0 0
969 1 -4.937938939000485 9.094198446261766 -10.691283432264056 0 0 0
984 1 -7.815363654276523 9.221037314191411 -10.342325277595364 0 0 0
1036 1 -6.355849114819705 10.728546500754677 -9.18622021247516 0 0 0
1498 1 -5.033780628977212 12.015012337102315 -10.912355025761322 0 -1 0
967 1 -7.729936969462814 11.974715661462612 -10.674621142718777 0 0 0
970 1 -4.833814201917784 12.31841291803641 -8.20064560945978 0 0 0
1037 1 -4.834302322568041 9.324421061831812 -7.926775997586773 0 0 0
968 1 -7.7022130177558035 12.4219496426515 -7.926107905097323 0 0 0
946 1 -3.755850799241996 10.394948289036746 -12.353546195892996 0 0 0
211 1 -3.709574894972304 13.282386222279642 -12.564717014289016 0 -1 1
1496 1 -6.638808893636149 13.380914828321279 -12.151330763976183 0 -1 0
1038 1 -3.5781386831796596 10.736360127728952 -9.57455965834832 0 0 0
1035 1 -7.55908003179748 9.385267768276874 -7.59552026944106 0 0 0
1675 1 -3.4785539804777237 13.540119164512534 -9.888291716732894 0 -1 0
1674 1 -6.443079300117866 13.60344813789064 -9.748701061950118 0 -1 0
989 1 0.5462871913929543 9.030894500541878 -11.511529862018397 0 0 0
971 1 -0.6033715861405273 10.675955191623752 -9.94578665305018 0 0 0
987 1 -2.3246956526621787 9.040345407391266 -11.14077837570682 0 0 0
1058 1 -1.9269616838518466 9.319686843937985 -8.460751131175549 0 0 0
988 1 0.45748700911043194 11.866700399161696 -11.73743880788854 0 0 0
1040 1 0.9157251157342099 12.276080463427364 -8.884408261624259 0 0 0
1060 1 0.9444730578816412 9.190591129661039 -8.64571637293841 0 0 0
972 1 -2.255099858382895 11.872723793053543 -11.285656152287588 0 0 0
955 1 -1.9640333807706227 12.278832256192834 -8.516497132112343 0 0 0
956 1 2.103780622793357 13.243773942456206 -10.711337545885215 0 0 0
1676 1 -0.7518560487719483 13.549109664429205 -10.297874498752842 0 -1 0
14 1 -1.017713740078575 10.256902288998242 -12.839089621701323 0 0 1
973 1 2.135831086769853 10.538899856091954 -10.423291058143404 0 0 0
990 1 3.37516796019281 8.855499978872382 -11.780593054798398 0 0 0
974 1 3.283559722389823 11.766512140022614 -12.24584345377442 0 0 0
1062 1 3.6491945354411772 9.180204322821462 -8.957813403657592 0 0 0
975 1 5.04037897345995 10.526545401543713 -10.84378401644691 0 0 0
1042 1 3.667792876245569 12.099102504235942 -9.246684686044473 0 0 0
1043 1 5.209597101787049 10.831815183570283 -7.879809995205772 0 0 0
1044 1 6.567324883069928 12.165662536162268 -9.755403682774027 0 0 0
1045 1 6.544846586975394 9.314829510995063 -9.210555155837913 0 0 0
12 1 6.251304637193565 8.814674532711399 -12.174593156807061 0 0 1
976 1 6.265115150388235 11.730726188289688 -12.512251022542449 0 0 0
957 1 4.827775072149025 13.427530824603968 -11.173984019260983 0 0 0
958 1 7.867311333758446 13.31238849476688 -11.456397830938158 0 0 0
977 1 7.7448703340281195 10.483311220462818 -11.024037079113777 0 0 0
1021 1 2.4649348301575014 13.731678237169875 -7.843796904051526 0 0 0
1185 1 5.273195097550465 7.906561022132868 -7.691082979567214 0 0 0
1041 1 2.4857088684751307 10.77614513491059 -7.536210427410891 0 0 0
1167 1 8.087925444081938 10.785939644381989 -8.178500685407402 0 0 0
1047 1 9.372108363704166 9.21398012654558 -9.678169316058034 0 0 0
1172 1 12.206270024522636 9.167461173682147 -9.79467462372478 0 0 0
978 1 10.674492219084046 10.399666753978524 -11.369272526842574 0 0 0
1027 1 12.257841922546417 12.234324181853955 -10.06532988818313 0 0 0
1046 1 9.39695358430153 12.073291637351874 -9.886468398670969 0 0 0
1150 1 10.988742156856167 10.745438909836151 -8.471793787164131 0 0 0
17 1 9.016674561024681 8.726219595122851 -12.454734816429603 0 0 1
960 1 9.038399039254058 11.646994882867231 -12.785621136480387 0 0 0
1028 1 10.62056925849818 13.30363755976814 -11.640331160113194 0 0 0
1048 1 12.042015668374711 8.83244543623856 -12.708480452896687 0 0 0
9 1 11.893489969626698 11.768472124466518 -12.98370451504402 0 0 1
1025 1 8.065634894912085 13.523497891740819 -8.560490097510304 0 0 0
1014 1 10.92236129718505 13.629886179803174 -8.78573681363812 0 0 0
947 1 13.483472540572306 13.295852075406598 -11.832730303184503 -1 0 0
952 1 13.505192643403143 10.422796113466637 -11.432807613680076 -1 0 0
979 1 13.865845976972492 10.831735535575573 -8.607839202561546 -1 0 0
966 1 -9.17856428474805 13.568993230110516 -9.318219624817221 0 0 0
964 1 -12.18460307729225 13.576321042885843 -9.134160572178317 0 0 0
1023 1 5.284833405505578 13.551679095350698 -8.195455961991602 0 0 0
1152 1 13.872056238928847 13.5920136271089 -8.864581760857696 0 0 0
1473 1 -9.057019446309095 -9.246312771467029 -7.061981990429205 0 0 0
1471 1 -12.013065380547964 -9.261249366554642 -6.88141216679243 0 0 0
1671 1 -12.057868430255503 -11.990533230643155 -6.6921986126114215 0 0 0
1651 1 -11.687546165481798 -11.825996647598737 -3.742605504217071 0 0 0
1650 1 -13.22583740420582 -10.506007879267928 -5.225922144951685 0 0 0
1652 1 -10.315364845073237 -10.510556797108013 -5.544381185949387 0 0 0
1779 1 -10.220471461687419 -10.191960271439346 -2.6472707783579494 0 0 0
1793 1 -13.2858200586747 -13.27103358012975 -4.993412652338398 0 0 0
1847 1 -10.194030522605862 -13.225935996510756 -2.310452382310597 0 0 0
1794 1 -10.47298498658746 -13.427417332073459 -5.213882668846069 0 0 0
1777 1 -13.029023124114067 -10.238770546942762 -2.4749377185601897 0 0 0
1673 1 -9.14085671304014 -12.100436282720347 -6.8649622702153135 0 0 0
1135 1 -13.068041755735752 -13.086677506136152 -2.132240823090017 0 1 0
1631 1 -11.791013019347503 -8.976391476486477 -4.173937803361726 0 0 0
1633 1 -8.863027934785958 -8.890448121414414 -4.265480839869641 0 0 0
1653 1 -8.989482269316639 -11.847204574014034 -3.9992634456598175 0 0 0
1656 1 -6.073505920915617 -9.283527891209113 -7.246574994639358 0 0 0
1655 1 -6.177247948988352 -12.147304765789734 -7.169436185007358 0 0 0
1780 1 -7.259994417073051 -13.143517933865983 -2.5443587744383773 0 0 0
1654 1 -7.59110914881306 -10.565809955511344 -5.757974268674776 0 0 0
1781 1 -6.020956677175221 -11.980617473163832 -4.276045123280053 0 0 0
1783 1 -4.542414999046599 -10.5515729645293 -6.027000045335205 0 0 0
1795 1 -7.623428941277713 -13.452563607006695 -5.439813275028497 0 0 0
1762 1 -4.404338262223213 -10.366099947541326 -3.1288658958910087 0 0 0