LAMMPS data file via write_data, version 2 Aug 2023, timestep = 0, units = metal

1864 atoms
3 atom types

-13.754435606544341 13.754435606544341 xlo xhi
-14.212189862034144 14.212189862034144 ylo yhi
-14.094217763087824 14.094217763087824 zlo zhi

Masses

1 55.847
2 1.008
3 1.008

Atoms # atomic

89 1 -11.981962105695803 -13.457303410901803 -13.372447254517104 0 0 0
974 1 -12.959399334353634 -11.560634261336967 -12.387822140456375 1 0 0
106 1 -10.197692504465827 -12.008651449316398 -12.53141566806773 0 0 0
102 1 -7.329772167766446 -12.544600762160513 -12.42402505643314 0 0 0
88 1 -9.081072056107715 -13.752554180181736 -13.600836128647247 0 0 0
16 1 -4.546322823680139 -12.954904577799981 -12.422297219141276 0 0 0
14 1 -1.7241519101967882 -13.293946676181589 -12.580881981432634 0 0 0
30 1 -2.795129965389364 -11.419637801620885 -11.488249644609368 0 0 0
511 1 -0.653477740114818 -0.3750244649825838 -2.602823783151347 0 0 0
989 1 -12.56095510071765 -8.68694098257798 -13.15072918558973 1 0 0
105 1 -11.226109663512826 -10.075121699448943 -11.36397141908818 0 0 0
137 1 -9.759538411694432 -9.303882273959339 -13.163904940113511 0 0 0
133 1 -8.404608508689234 -10.567392812640431 -11.4979995931591 0 0 0
33 1 -6.883957435344648 -9.818388827094488 -13.127553345022708 0 0 0
35 1 -4.145946828626128 -10.025278898084903 -13.216285342700745 0 0 0
28 1 -5.5879839353757745 -10.965751331399636 -11.392620377604697 0 0 0
31 1 -1.391193394287324 -10.671104779463244 -13.17737468090866 0 0 0
43 1 -2.234987677277571 -8.615435033525436 -12.169352966148676 0 0 0
108 1 -10.754326923077024 -7.266391032236814 -12.171642457347406 0 0 0
136 1 -12.319052221187379 -6.0080617914160825 -13.789514557394703 0 0 0
49 1 -0.9976746156468543 -7.80315884400854 -14.034824833641594 0 0 0
134 1 -8.068869614462436 -7.795394830867865 -12.042158575115455 0 0 0
169 1 -9.316369118046248 -6.566065417738936 -13.915911983500989 0 0 0
47 1 -5.1969618690716874 -8.165589192717924 -12.096088782135299 0 0 0
34 1 -6.613856416195279 -7.096884026966132 -13.84068108258295 0 0 0
430 1 -2.4157227879958487 -3.998067125168218 -0.18296172151040047 0 0 0
165 1 -6.162756269358901 -6.407715859822367 -11.080139036051621 0 0 0
54 1 -0.33605262160436666 -5.899202424706946 -5.733835174374576 0 0 0
44 1 -1.9768899004865332 -5.9586447517162515 -12.88919195012745 0 0 0
1044 1 -13.28355536359457 -4.051013737030692 -12.836690789801716 1 0 0
135 1 -10.455280074182697 -4.514759528242529 -12.783142574336965 0 0 0
50 1 -7.592189222823435 -5.120073241967281 -12.830659959914087 0 0 0
202 1 -8.681697218727933 -3.092412077828758 -11.846964930081077 0 0 0
46 1 -4.696864000212948 -5.527292212598256 -12.879629268288955 0 0 0
64 1 -5.842301933239257 -3.5132834783644995 -12.010355814306843 0 0 0
1021 1 -1.5512071050941927 -3.3180458419888748 -13.810976314887895 0 0 0
62 1 -3.220501019594341 -3.9388834100573007 -12.012173851624969 0 0 0
1016 1 -0.2706904711388578 -4.418573878543233 -12.029301801983172 0 0 0
168 1 -11.478017918813045 -2.5751468977715515 -11.691425714221422 0 0 0
171 1 -12.96940699493137 -1.2977377869133786 -13.642416521718548 0 0 0
205 1 -10.101520534479116 -1.8217895162147784 -13.655407288092816 0 0 0
170 1 -7.234576766930667 -2.2285578391850294 -13.585288220640441 0 0 0
203 1 -8.401083187607918 -0.3011986937171063 -12.65020820874836 0 0 0
66 1 -4.427081503203807 -2.668965273129933 -13.476897696614722 0 0 0
65 1 -5.625211145422281 -0.8028843984356513 -12.598961797208403 0 0 0
63 1 -2.607283037877565 -1.3434917423014774 -12.627420988967247 0 0 0
87 1 -11.556770713663422 -12.717292183718332 -10.59524276585034 0 0 0
97 1 -13.227829858011804 -13.582524073329282 -8.924087969647122 0 0 0
541 1 -10.303295482626043 -13.948991943676436 -8.91645631199951 0 1 0
101 1 -8.834762436154943 -13.1884072489778 -10.834646950579675 0 0 0
158 1 -7.105980652454816 -11.797702225957076 -9.730574184019058 0 0 0
13 1 -4.204370351491725 -12.277658423626352 -9.713027195918423 0 0 0
15 1 -5.987257305876018 -13.673026214094977 -10.702888471871884 0 0 0
26 1 -1.3571862455803725 -12.617073754082526 -9.65845922330162 0 0 0
955 1 -0.05662738706992698 -11.921760756616852 -11.419872761731849 0 0 0
104 1 -12.698607491089103 -10.874396318298084 -9.493426402344408 0 0 0
125 1 -10.966400036364043 -9.263184146277748 -8.629806857662455 0 0 0
100 1 -9.798197822835652 -11.216421849070148 -9.728186657887917 0 0 0
95 1 -8.033863750946567 -9.856817989185432 -8.654020960333973 0 0 0
132 1 -9.397663489960033 -8.629485234903116 -10.353971799080387 0 0 0
45 1 -6.693311385368397 -9.044819433937601 -10.454241392951996 0 0 0
29 1 -3.833023519566316 -9.478409192464538 -10.473120935632512 0 0 0
123 1 -5.386802394933669 -10.343230586710776 -8.739281469512555 0 0 0
25 1 -1.066654754525663 -9.954308279701504 -10.3535860312146 0 0 0
24 1 -2.6516912388899065 -10.71985583684932 -8.675437647513384 0 0 0
130 1 -13.49580251286739 -6.145854765101776 -9.408274037284936 0 0 0
131 1 -12.39181689859171 -8.08421116491294 -10.387622718652793 0 0 0
162 1 -10.653644254828322 -6.746298470331584 -9.359895280670521 0 0 0
164 1 -7.6900768963111625 -7.08066199996593 -9.287830577110824 0 0 0
163 1 -9.109847130682082 -5.821505109910172 -11.093687298754737 0 0 0
159 1 -5.114525579577132 -7.6390649674509765 -9.222886987606781 0 0 0
42 1 -3.5205920354072084 -6.741937127983683 -11.077928854691594 0 0 0
27 1 -0.6999340933060196 -7.18441958141682 -11.261057912403693 0 0 0
41 1 -2.150495930418934 -7.944233645003742 -9.446566439553628 0 0 0
167 1 -11.921074946382024 -5.328752931797627 -11.09233893635141 0 0 0
166 1 -13.034664775956072 -3.4799610157487457 -10.052047801305019 0 0 0
200 1 -10.181213364190036 -3.8148503165042573 -10.134321130098705 0 0 0
196 1 -7.242364491902568 -4.392802188363106 -10.178281879538197 0 0 0
60 1 -4.476859005131983 -4.855745159938282 -10.159252604310627 0 0 0
74 1 -5.556318865727029 -2.8134129098852068 -8.934264648637331 0 0 0
58 1 -1.7094208821584935 -5.195250020006606 -10.203741113947354 0 0 0
57 1 -2.7081235046324394 -3.3633973551442473 -9.018890333388242 0 0 0
204 1 -12.661328343162529 -0.5690266611957142 -10.892003673328164 0 0 0
193 1 -11.310488665983755 -1.8640879563663137 -9.084064556245245 0 0 0
201 1 -9.78079903280923 -1.0647188959269425 -10.817867986618914 0 0 0
195 1 -8.396394551835076 -2.358782911152529 -9.220645310310783 0 0 0
197 1 -6.869250606866561 -1.56204920244374 -10.761423827665434 0 0 0
61 1 -3.9917228319150038 -2.04476295090595 -10.7479517846681 0 0 0
86 1 -13.387004341757734 -14.062570027735868 -11.531403872961512 0 0 0
59 1 -1.357029624015933 -2.542167661294515 -10.878460384856805 0 0 0
72 1 -2.2045537193919404 -0.451179212480433 -9.924192225314663 0 0 0
546 1 -11.271539773581669 -12.08236950919213 -7.915212459086372 0 1 0
94 1 -12.773235986431503 -12.887700750790417 -6.020263368443745 0 0 0
91 1 -10.09578119819877 -13.349323943613426 -6.132751922397965 0 0 0
544 1 -8.622666732972126 -12.370354612225086 -7.910518846734431 0 1 0
551 1 -7.176127158707758 -13.641060267747354 -6.118614533104058 0 1 0
128 1 -5.710858617826219 -12.914347540134669 -7.91355264632624 0 0 0
122 1 -3.9358719931055735 -11.5395050605994 -6.822094975559009 0 0 0
231 1 -6.720191768467552 -2.2134141172216495 -1.856420973766724 0 0 0
11 1 -2.886377530511128 -13.384073604536512 -7.916861747935891 0 0 0
22 1 -1.1358064413877518 -12.055187762800898 -7.026826062693237 0 0 0
525 1 -11.569595592864445 -14.097885780063542 -4.22186937805319 0 1 0
156 1 -12.377958365729354 -10.14745136808147 -6.788102951601136 0 0 0
126 1 -10.766304135437146 -8.614755679331942 -5.784476157491433 0 0 0
119 1 -9.754493603391147 -10.615129731407643 -6.864420569023434 0 0 0
553 1 -8.050372780010274 -9.259260022862636 -5.815940641411043 0 1 0
543 1 -6.672769510117117 -11.011484969112203 -6.890562273502162 0 1 0
183 1 -5.017601014129129 -9.616159266024642 -5.835548976044571 0 0 0
37 1 -3.631315373439598 -8.899133747427054 -7.671734533701643 0 0 0
40 1 -0.8630459638712029 -9.22592805909888 -7.758588931409147 0 0 0
116 1 -2.202514433727206 -10.128408394571238 -5.98874567005136 0 0 0
160 1 -12.021533052283884 -7.374625683817457 -7.462714704923621 0 0 0
99 1 -13.538417972222746 -8.158994005985658 -5.819746225527162 0 0 0
155 1 -10.423177618995766 -5.898287802114144 -6.629462386502986 0 0 0
127 1 -9.215228814514504 -7.894209188881957 -7.539163351514507 0 0 0
188 1 -7.581272990052394 -6.449819589123413 -6.54551614123779 0 0 0
150 1 -6.413015704584779 -8.42904115310187 -7.458949332535772 0 0 0
39 1 -4.661759361272097 -6.9622383849303064 -6.661537422258567 0 0 0
157 1 -6.046269068756248 -5.618123806940536 -8.306498620330125 0 0 0
55 1 -0.49706142668319586 -6.472454902601228 -8.429540580905915 0 0 0
71 1 -3.2809379588843175 -6.0885310987298205 -8.434663517809561 0 0 0
995 1 -2.0309292565963766 -7.333962739299472 -6.718614109618151 0 0 0
527 1 -0.04087616216272849 -13.983005765127512 -8.000983507700427 0 1 0
161 1 -11.680975816031804 -4.655830417444369 -8.3341987003254 0 0 0
192 1 -13.063149785276536 -5.35541335693248 -6.63682927426117 0 0 0
194 1 -8.903565611969471 -5.214729954500896 -8.390314231948242 0 0 0
225 1 -9.87978934669004 -3.114081355253173 -7.407865167735321 0 0 0
191 1 -7.173411293610653 -3.710519232811416 -7.384384383880048 0 0 0
38 1 -4.262329583162515 -4.23830337816498 -7.404876339146608 0 0 0
142 1 -5.842150272266979 -4.994670572358775 -5.554931140053199 0 0 0
56 1 -1.5770388015915255 -4.602919793407526 -7.322475435844358 0 0 0
187 1 -12.824492119462256 -2.6274508568797064 -7.298117023776459 0 0 0
224 1 -11.007602109983461 -1.2410170026020442 -6.313326102601265 0 0 0
229 1 -2.1149960516370605 -1.3532228726639417 -0.8231764552146643 0 0 0
650 1 -9.471331556804142 -0.40469621997643657 -8.022846302279095 0 0 0
189 1 -8.09826193939465 -1.6861813693117362 -6.349159805411199 0 0 0
226 1 -6.639647867249767 -0.8430379772975716 -8.2569804568218 0 0 0
223 1 -3.88903241183813 -1.382633413624724 -7.977742366873371 0 0 0
222 1 -5.287888488424844 -2.289487526902528 -6.253323704986669 0 0 0
70 1 -1.078795787758029 -1.8835681643520434 -8.097693654981853 0 0 0
215 1 -2.553605221088697 -2.6865491516766014 -6.321292718901119 0 0 0
110 1 -12.662441246564761 -12.228078431167408 -3.16773037128943 0 0 0
118 1 -11.177471889052054 -11.344217808524583 -4.97618686113235 0 0 0
114 1 -8.408840699232934 -11.844261770972324 -5.083040915676412 0 0 0
111 1 -9.856787135874113 -12.712375202267868 -3.1674111776394103 0 0 0
113 1 -7.015597633940804 -13.11220758591619 -3.35629481306564 0 0 0
121 1 -5.490253501638181 -12.299201059743762 -5.0673425916033175 0 0 0
92 1 -4.175344481372422 -13.629988827401943 -3.429791862466937 0 0 0
534 1 -1.2008812545670224 -13.97144786954 -3.528592670353401 0 1 0
115 1 -2.627039119653581 -12.816550113498757 -5.206296662668885 0 0 0
36 1 -0.9509329976985033 -11.272048455011241 -4.128335345007137 0 0 0
154 1 -12.329627769195872 -9.550972697055103 -4.0547804282011874 0 0 0
112 1 -9.274447678293038 -9.887787770766618 -3.986102902041326 0 0 0
120 1 -6.605432121302616 -10.373302191892318 -4.134759204494262 0 0 0
143 1 -3.6092422808881235 -10.880480883415084 -4.185198025114024 0 0 0
173 1 -4.895344302220202 -8.942565379269736 -3.109410069090094 0 0 0
2 1 -2.034058205255171 -9.342907669416476 -3.1033200060418036 0 0 0
51 1 -0.568496980677617 -8.546372568362635 -4.900430699486154 0 0 0
186 1 -11.904529374344795 -6.6296698425755896 -4.755160243563509 0 0 0
146 1 -13.378594933432467 -7.495239079257513 -3.1257711314603274 0 0 0
147 1 -10.51070686554326 -8.006588450143461 -3.021196483563852 0 0 0
140 1 -7.6999747285638485 -8.374270128032531 -3.0949759382269875 0 0 0
148 1 -9.021977692636078 -7.100485632603188 -4.929031749479945 0 0 0
141 1 -7.258107349850722 -5.772121667415005 -3.7984731625449317 0 0 0
149 1 -6.084031536226567 -7.504632459721622 -4.857228655632998 0 0 0
151 1 -4.347709527458255 -6.239615064331155 -3.87644549133363 0 0 0
176 1 -3.34668601772826 -8.301821293062105 -4.844882616986945 0 0 0
1034 1 -1.5610800997417655 -6.538165103035747 -3.810123453412844 0 0 0
198 1 -11.371953027184011 -3.8284380835960246 -5.627283332173038 0 0 0
185 1 -12.997005252539772 -4.700960985128443 -3.75831664111206 0 0 0
220 1 -8.687551388490848 -4.483453487309621 -5.613499170062269 0 0 0
180 1 -10.099220217816692 -5.155769680380764 -3.7633462388037664 0 0 0
182 1 -8.374195316132765 -3.730552256620152 -2.849336645012322 0 0 0
213 1 -6.9092277298949485 -3.0544424845883285 -4.626435627260477 0 0 0
152 1 -4.139171198209814 -3.5294588823553603 -4.617357411203086 0 0 0
53 1 -5.572059949541401 -4.335162470128424 -2.8178699266267877 0 0 0
144 1 -2.8998294214525444 -5.362068759886732 -5.579655689103275 0 0 0
69 1 -1.2095370615143555 -3.967592449174699 -4.5679931548452615 0 0 0
643 1 -2.7814011429222454 -4.704688978815815 -2.910909565469405 0 0 0
219 1 -10.670815626407622 -0.4445965157753129 -3.5745076825016735 0 0 0
673 1 -12.555290364187286 -1.9098783310052383 -4.617309987885109 0 0 0
389 1 -13.7469529008849 -2.0828377699377914 -0.02150029460575631 0 0 0
221 1 -9.530693815051555 -2.439535771202399 -4.543547533663055 0 0 0
669 1 -7.973135018260446 -0.916071938102835 -3.4484924618400434 0 0 0
671 1 -6.451304806836073 -0.27024581530719516 -5.341386690665921 0 0 0
214 1 -5.145535227351125 -1.5479502013175974 -3.6032577766186726 0 0 0
190 1 -3.704166728335899 -0.6110777234625537 -5.27400915610292 0 0 0
79 1 -0.8004077692397757 -1.1704378185393 -5.369988501585835 0 0 0
208 1 -2.4811874320363465 -1.9038520971099135 -3.6415941094164506 0 0 0
883 1 -11.308233562025915 -13.443767570679071 -1.5124642963939667 0 1 0
531 1 -8.370083684283536 -13.910457336605878 -1.6547898537381798 0 1 0
452 1 -9.564628063625573 -11.950018126332552 -0.5171038529394778 0 0 0
9 1 -6.755089356370068 -12.42214688068267 -0.6174355481594382 0 0 0
3 1 -4.038497618110709 -13.004362863538011 -0.6721514961093646 0 0 0
7 1 -5.246206963044221 -11.648151315025501 -2.508205486387121 0 0 0
212 1 -3.7960459734412346 -2.6730246578789423 -1.8898237370705377 0 0 0
5 1 -2.5192835220149465 -12.147801086113798 -2.405863496329639 0 0 0
83 1 -0.9853298184665142 -13.373987254098225 -0.7429938839334014 0 0 0
1297 1 -12.368837725376565 -11.462366927900167 -0.35302526233721565 1 0 0
445 1 -10.90275836523848 -10.688219773641382 -2.2869305951266625 0 0 0
444 1 -12.130659892943733 -8.761869593085084 -1.2951341094385498 0 0 0
139 1 -8.153714783216225 -11.197158158663807 -2.3254287805062184 0 0 0
138 1 -9.15199642211918 -9.241979736616404 -1.4023460119448021 0 0 0
441 1 -6.312484362796035 -9.782132286544421 -1.3636723943624283 0 0 0
4 1 -3.4465599977597403 -10.07756819521892 -1.346858264320062 0 0 0
84 1 -0.6102041234264988 -10.614275435360442 -1.428596219302971 0 0 0
85 1 -1.6081137948772408 -8.710239009988205 -0.3795703965556818 0 0 0
177 1 -13.009722369245992 -6.860029598208301 -0.1947107628215523 0 0 0
178 1 -11.559923931464777 -6.010807834152038 -1.9674446394714433 0 0 0
179 1 -10.115579837654577 -7.245719974842235 -0.19560677020177053 0 0 0
181 1 -8.700553997277208 -6.518841332412696 -2.071661052698593 0 0 0
442 1 -7.429059914114001 -7.679792417750319 -0.3589780196957637 0 0 0
440 1 -4.446730087433302 -8.237681984870632 -0.22433924359587643 0 0 0
172 1 -5.9867108108950084 -7.004306210343893 -2.158505864043656 0 0 0
1132 1 -0.2231687304740415 -7.9540602863267065 -2.166959912431988 0 0 0
52 1 -3.1371087911509523 -7.399985135661222 -2.036787392486911 0 0 0
67 1 -1.3180642985519277 -5.833609392391775 -1.3153183245362996 0 0 0
218 1 -11.161331411616924 -3.2130606733445664 -2.7841238413484106 0 0 0
216 1 -12.59483936555309 -4.0558512993148135 -0.9168478613095221 0 0 0
427 1 -4.924722646836807 -0.7854685678481328 -0.9009415450973002 0 0 0
210 1 -9.852108678966056 -4.4296988496570435 -1.0162714641720605 0 0 0
174 1 -7.079735447634703 -5.033383352577168 -1.0523340440983961 0 0 0
1015 1 -13.710529192894613 -6.832965467103769 -12.19238705567385 1 0 0
458 1 -4.192160978713101 -5.406687943561563 -1.0078862617888422 0 0 0
78 1 -0.8593200868616933 -3.180844607532727 -1.8091150578493593 0 0 0
1080 1 -13.584846081826484 -0.03241680074943609 -3.585160623104139 1 0 0
217 1 -12.257510900385306 -1.13665208463504 -1.8936095798301817 0 0 0
211 1 -9.413341166568994 -1.8835277295484811 -1.774104784280084 0 0 0
662 1 -7.622969407516727 -0.29348439785261604 -0.7079533307875181 0 0 0
48 1 -3.6670421248495497 -7.4420591742597315 -13.930705460949255 0 0 0
491 1 -3.065399872150854 -14.148486362043831 -10.72112507715495 0 1 0
291 1 -11.595970399517624 -10.693790902206889 -14.0575313572072 0 0 1
207 1 -5.291512714995067 -3.4329916170107317 -0.09437845303156145 0 0 0
98 1 -13.754062647328961 -8.880428238593007 -8.54346548972305 0 0 0
455 1 -10.99440570711177 -12.876718114965863 1.3345833357144201 0 0 0
457 1 -8.172241526207674 -13.2396149801686 1.1490985540620322 0 0 0
448 1 -5.4048652169913645 -13.763518489832236 1.1632151910498916 0 0 0
301 1 -6.450188460799426 -11.690565280167569 2.188185445785612 0 0 0
447 1 -3.5718592875053243 -12.268924763709217 2.0823402142600305 0 0 0
435 1 -0.910454595766387 -12.622133247650831 2.11977041175483 0 0 0
235 1 -1.9622490969967394 -14.133148259749829 12.914282661458854 0 0 0
1249 1 -12.180941696559655 -10.663074083673628 2.242899746472366 1 0 0
443 1 -10.635537762601343 -9.895427081540745 0.46874492489414976 0 0 0
1171 1 -13.60256891970439 -9.557673230988458 0.6070513083683888 1 0 0
293 1 -9.38732661416416 -11.252766284540623 2.1882367523794333 0 0 0
451 1 -7.7409461605616965 -10.451680571485426 0.4517491233730997 0 0 0
325 1 -8.931497963624466 -8.54029369783941 1.4508867597179123 0 0 0
333 1 -6.062414485675651 -9.029125196556038 1.3904025290836408 0 0 0
449 1 -4.9774531157137485 -11.04267057389393 0.4559340315605436 0 0 0
439 1 -2.1544818142284914 -11.451208120428628 0.2165365391461389 0 0 0
438 1 -3.1225487306669706 -9.507769118915387 1.3480747745691204 0 0 0
252 1 -0.42143171195300155 -9.912670706588955 1.2918489228008863 0 0 0
317 1 -11.80137549340649 -7.956757296178032 1.408917553764585 0 0 0
353 1 -12.810485069868962 -6.139063506367421 2.5073474784191685 0 0 0
371 1 -7.198894685099006 -7.054172092721596 2.4178422606738206 0 0 0
362 1 -10.017375486294577 -6.574352091353339 2.6145067214268547 0 0 0
363 1 -8.492734916053728 -5.833590648306821 0.7848269267245502 0 0 0
175 1 -5.680756111283804 -6.202569614214303 0.6726772726789179 0 0 0
380 1 -4.313111736145547 -7.613703517645201 2.3380962635770306 0 0 0
459 1 -1.469641648110521 -7.95142061855351 2.280335938577183 0 0 0
1 1 -2.816834940421357 -6.641716656276178 0.792482956030101 0 0 0
247 1 -0.12179640723901564 -8.584103192543159 6.887964334815576 0 0 0
446 1 -11.28141077179726 -5.242783025281199 0.8169173338726097 0 0 0
393 1 -12.357496416624608 -3.312396851942802 1.7367195031090983 0 0 0
397 1 -9.561861857045821 -3.86546580692346 1.814125830965768 0 0 0
405 1 -6.7576246703368845 -4.337231991963002 1.7118471084630862 0 0 0
414 1 -3.974423153731067 -4.650340150909495 1.6153584058721258 0 0 0
257 1 -1.1201151125235569 -5.148781192997355 1.6029989914121714 0 0 0
415 1 -2.254748903473825 -3.359653179420052 2.5774664779008862 0 0 0
424 1 -12.066544495569403 -0.4284957663804434 1.0097995651062117 0 0 0
392 1 -10.725125125614914 -1.8426868460922954 2.697151179844452 0 0 0
349 1 -13.468671630542458 -1.3167974081080924 2.720988558182489 0 0 0
266 1 -12.12925530499636 -14.144959596605462 12.017398785557466 0 0 0
454 1 -8.051118206082432 -3.02340920355236 0.023351449638006727 0 0 0
425 1 -9.211178185360417 -1.2493633937051065 0.9053312144611585 0 0 0
398 1 -7.885008182630986 -2.348366777032581 2.7511229967326276 0 0 0
406 1 -5.186683967961342 -2.847768057109482 2.7999302568744984 0 0 0
206 1 -6.3399149731046895 -1.59140765438846 0.9630057380806178 0 0 0
230 1 -3.6048457076937392 -1.9754412371016183 1.0293774411881422 0 0 0
262 1 -0.7346538485127496 -2.5435802763920723 0.8769711339365074 0 0 0
431 1 -1.8542156561560557 -0.6229658678238046 1.892421931672347 0 0 0
268 1 -10.560713535898268 -11.9721015459184 4.055969706820315 0 0 0
271 1 -7.747619142936858 -12.363980185681733 3.9078884887935157 0 0 0
834 1 -9.382655970931518 -13.908624416978446 2.9980085842709006 0 1 0
309 1 -4.936038319234834 -13.095013024191415 3.8920835035658836 0 0 0
277 1 -6.59771165123632 -13.886232986536442 5.751086258574448 0 0 0
310 1 -3.358457053541148 -11.56870990952382 4.924063437764991 0 0 0
434 1 -2.2319178900796306 -13.440296403067927 3.8216436625624493 0 0 0
237 1 -0.5437933740606233 -11.95755109193102 4.83185934320298 0 0 0
1298 1 -13.348030231250164 -8.639181367423049 3.2153858915002953 1 0 0
453 1 -11.865923944195659 -10.05976329045209 4.905574237273997 0 0 0
286 1 -10.429507307507109 -9.157235658977601 3.1844502703060282 0 0 0
294 1 -7.653482286407524 -9.713438788467904 3.2401514038403025 0 0 0
295 1 -8.933663199615985 -10.501871069861702 4.925281335548631 0 0 0
302 1 -6.1985458685053265 -11.040172968989523 5.0147817993944575 0 0 0
341 1 -4.63652215727997 -10.40824303987543 3.1495378320975416 0 0 0
244 1 -1.7763956698125014 -10.592712003603333 3.0043945850199005 0 0 0
342 1 -3.015493910239698 -8.70949241376358 4.0165783651533165 0 0 0
245 1 -0.12916436634874806 -9.154096525731962 4.168055449302939 0 0 0
318 1 -11.4639313685509 -7.377077118583683 4.44083994774846 0 0 0
326 1 -8.682924994171747 -7.760685795554073 4.33259758833235 0 0 0
364 1 -9.711660034724673 -5.821289832068775 5.290895834271916 0 0 0
373 1 -6.8739072000133925 -6.419224080043913 5.146752540651265 0 0 0
334 1 -5.866411832363119 -8.352930052558733 4.076823590145411 0 0 0
382 1 -4.165622172876178 -6.907177259173674 5.079822366264773 0 0 0
253 1 -1.3082217108621936 -7.229402515834534 5.136290937985736 0 0 0
381 1 -2.5076824965192337 -5.926316047906424 3.3647442612276475 0 0 0
355 1 -12.479137505168133 -5.511318843027253 5.3033600447444815 0 0 0
354 1 -11.045953530309346 -4.565860794899304 3.552159885006658 0 0 0
422 1 -2.9995050773946765 -2.008170118205088 12.70238581301349 0 0 0
399 1 -8.267980515576003 -5.1973070341174985 3.4522539518020583 0 0 0
394 1 -9.267005812711936 -3.1256546052270355 4.564506855527965 0 0 0
372 1 -5.357785608527147 -5.549221980169497 3.3835857706512353 0 0 0
407 1 -6.575126588854538 -3.5548598374300298 4.491980425289585 0 0 0
416 1 -3.7627470794541864 -4.016723494770581 4.408984853488386 0 0 0
258 1 -0.8880279120082228 -4.496285177541118 4.443608845556975 0 0 0
350 1 -12.210504304873083 -2.5688228208737094 4.507510227431526 0 0 0
395 1 -10.501970466162188 -1.226561014203913 5.5281920883272 0 0 0
390 1 -13.191505515761902 -0.7188682244523523 5.595139187500502 0 0 0
426 1 -8.961458883688895 -0.43903827334257883 3.7675667202679097 0 0 0
400 1 -7.658123308782 -1.603786587762409 5.47327148866397 0 0 0
429 1 -6.1333869918799895 -0.8825769709801339 3.787993382069315 0 0 0
408 1 -4.720403090907444 -2.153570502757507 5.519622808143611 0 0 0
432 1 -3.4480855482499653 -1.4233910746678937 3.6781472146970646 0 0 0
263 1 -0.5412358142241729 -1.7264977569640116 3.678757977127246 0 0 0
417 1 -2.0050685470925806 -2.5646400486536702 5.374646705519991 0 0 0
261 1 -0.09789535269277572 -2.5070034773110645 12.669677278811841 0 0 0
1170 1 -12.2626566013256 -12.708689077610153 5.751274429594018 1 0 0
265 1 -0.0724739741119329 -0.38981017130083373 9.162691089361426 0 0 0
272 1 -9.401221583611472 -13.267040647161197 5.775454693067852 0 0 0
303 1 -7.648928675650146 -11.851860435270748 6.744988643178706 0 0 0
273 1 -9.015498865317134 -12.564255085112821 8.49499100056279 0 0 0
311 1 -4.805938548941684 -12.451778942482717 6.59796497294707 0 0 0
278 1 -6.23064118721259 -13.158584240170589 8.332090436545355 0 0 0
238 1 -2.1006580786622333 -12.697243321527228 6.535927241552711 0 0 0
269 1 -10.40942392752713 -11.243239330002483 6.805723861698359 0 0 0
288 1 -11.608534965940557 -9.405445215325297 7.794172696734959 0 0 0
287 1 -13.262956345069327 -10.826511772754143 6.832098432046619 0 0 0
335 1 -7.345605181266521 -8.913292829971176 5.944820077486719 0 0 0
296 1 -8.776454866080813 -9.85665809364048 7.693482720474348 0 0 0
327 1 -10.087761637987086 -8.607857497325384 6.004352041427866 0 0 0
343 1 -4.423809158172233 -9.542486161383103 5.7996309704622835 0 0 0
304 1 -5.887279349145106 -10.290330910993578 7.616894135949147 0 0 0
239 1 -0.3364155532233646 -11.336437882689804 7.538163229597126 0 0 0
246 1 -1.7273429405226697 -10.03635400962565 5.7881250716226 0 0 0
312 1 -3.196448109801132 -10.807667579497311 7.648648158799263 0 0 0
319 1 -12.984118794128896 -8.197638355329673 5.985440117360303 0 0 0
320 1 -11.297157412631698 -6.604197907118906 7.116219349605606 0 0 0
328 1 -8.31495547180527 -7.024279077633329 7.025103488169881 0 0 0
336 1 -5.476905397738722 -7.656999350933573 6.93257955212257 0 0 0
384 1 -3.8024310118907803 -6.169389631354463 7.864080418680716 0 0 0
344 1 -2.7192149811617767 -8.053256614777112 6.915450533184037 0 0 0
254 1 -1.0963965821239192 -6.637813037381471 8.053857794379626 0 0 0
357 1 -12.377198246129705 -4.723158922424126 7.9957033429337425 0 0 0
356 1 -10.840254217857357 -3.8836155715188383 6.256371577046698 0 0 0
428 1 -4.540471265594599 -0.07639626667965693 1.9703422019215804 0 0 0
365 1 -7.943551926782452 -4.504825047389797 6.421459011941829 0 0 0
366 1 -9.64775671037722 -5.19147162541277 8.040618179589815 0 0 0
375 1 -6.565172519291778 -5.704604093674211 7.968057005741729 0 0 0
374 1 -5.100856123003538 -4.9538747190713295 6.128896238721916 0 0 0
418 1 -3.511263312769225 -3.4572808925496883 7.15227226512811 0 0 0
409 1 -6.186190108272815 -2.971227363173252 7.151771315742627 0 0 0
383 1 -2.3349943593541465 -5.300088660742155 6.157725333908262 0 0 0
259 1 -0.6961574974216322 -3.771707218540639 7.111041062546716 0 0 0
844 1 -10.827290658717644 -14.057708408621552 7.396326062880272 0 1 0
351 1 -11.885334747037287 -2.02873817773016 7.32691546944193 0 0 0
921 1 -10.12619447868301 -0.49376543940242534 8.344801789725492 0 0 0
401 1 -9.149563106646873 -2.439320368663374 7.256385843115789 0 0 0
402 1 -7.317804914688063 -1.0836533337726824 8.223564688937762 0 0 0
410 1 -4.517650617718704 -1.4525491323913027 8.223214818917663 0 0 0
404 1 -8.59637810362528 -1.141244076788725 12.959296845569218 0 0 0
264 1 -0.294157423270061 -1.1007914316209622 6.530061250715905 0 0 0
433 1 -3.174914354693307 -0.6145066644857717 6.442596249722529 0 0 0
419 1 -1.7881397555726846 -1.931623803070611 8.20898096868664 0 0 0
1254 1 -11.98405841956276 -12.077427688111346 8.66794390882867 1 0 0
274 1 -10.558182162351416 -13.40798598824933 10.219153814347854 0 0 0
1674 1 -13.407528543249231 -12.961757636450224 10.30576741443363 1 1 0
270 1 -11.723025370014946 -11.380746457485227 11.168346113582706 0 0 0
279 1 -7.738400982329136 -13.878490752966819 10.17187027431787 0 0 0
275 1 -8.85446063003975 -11.912823127457315 11.16613715091278 0 0 0
282 1 -3.6075818523013385 -13.537585642398236 8.370947641894103 0 0 0
313 1 -4.6075988732433295 -11.592853709997126 9.409649964156225 0 0 0
280 1 -5.987377397867706 -12.402576992398764 11.334233574601969 0 0 0
233 1 -0.6947418643968106 -13.97734329069332 8.319005408921191 0 0 0
240 1 -1.8719663720985178 -12.102866434281093 9.404502986526575 0 0 0
234 1 -0.46988835502616766 -13.349755368386829 11.238693283689718 0 0 0
284 1 -3.3683862166399123 -12.923987463326714 11.129985022587432 0 0 0
289 1 -13.14795521539524 -10.203060138003575 9.594957541039706 0 0 0
290 1 -11.283617115626548 -8.6544729620634 10.57701190022806 0 0 0
297 1 -10.176589313933736 -10.670899165358005 9.546826034099448 0 0 0
305 1 -7.275580715279102 -11.223653053620813 9.377531562792756 0 0 0
298 1 -8.409046259622498 -9.208424133705726 10.469079027932116 0 0 0
306 1 -5.684089591193208 -9.71058041298302 10.407343180314081 0 0 0
345 1 -4.243128035996394 -8.830725912017204 8.68227102243594 0 0 0
248 1 -1.4396068437762999 -9.38672353681106 8.651024526055492 0 0 0
314 1 -2.9324213546229903 -10.188403214004968 10.39235050305725 0 0 0
107 1 -8.724272562341715 -11.294018612114531 13.930675658494932 0 0 -1
321 1 -12.738381727165734 -7.43863328700661 8.75474867613818 0 0 0
322 1 -11.021837891938931 -6.069592501321898 9.872134212336126 0 0 0
329 1 -9.765567708331151 -7.910487238423575 8.825604528837966 0 0 0
330 1 -8.107521153531756 -6.370411358012076 9.691721762561668 0 0 0
337 1 -6.955034656209847 -8.298677475974873 8.688619507895703 0 0 0
338 1 -5.301328332399072 -6.841365047529465 9.71757557095488 0 0 0
346 1 -2.5627153969722585 -7.498681629734506 9.677609068493704 0 0 0
255 1 -0.7730708341937067 -5.9097877021736185 10.761816091575449 0 0 0
359 1 -12.057908017166884 -3.9328670339266125 10.878819195921638 0 0 0
358 1 -10.599188559919845 -3.320367841974752 9.187887474824228 0 0 0
423 1 -1.359188955004912 -0.5768935969789766 13.57256050852524 0 0 0
368 1 -9.34015332245449 -4.322436984748435 10.842274323121265 0 0 0
367 1 -7.692903461197097 -3.6972992752924494 9.006139552493108 0 0 0
377 1 -6.506741770809013 -4.823135374943915 10.746840274485711 0 0 0
376 1 -4.858469160123963 -4.253963651749757 9.095875101109476 0 0 0
386 1 -3.5115953866664835 -5.395764315807751 10.743587205719498 0 0 0
260 1 -0.37557956232954837 -3.167005534729469 9.991809763248602 0 0 0
385 1 -2.147109841619823 -4.720905675163657 9.022955349956588 0 0 0
1393 1 -13.41677989735192 -2.646780277843032 9.016487461350772 1 0 0
396 1 -11.741438192476334 -1.182948390289944 10.109213454585712 0 0 0
403 1 -8.861094655455563 -1.8805158831583597 10.073897882186289 0 0 0
925 1 -7.2685028501638 -0.44762326177126255 11.112951977072475 0 0 0
412 1 -4.3320261864883935 -0.7783503207239519 11.103030372018436 0 0 0
411 1 -5.9557956648582735 -2.299721768807517 9.957562552087674 0 0 0
420 1 -3.200640626106768 -2.6818338295648427 9.996405007466608 0 0 0
421 1 -1.5763972707485792 -1.2207335907747119 10.921699902124372 0 0 0
1214 1 -13.314662090431279 -12.301696013466302 13.091899682994642 1 0 0
276 1 -10.414695829997243 -12.681036658274998 12.895454734111423 0 0 0
281 1 -7.445813148059738 -13.084573246782643 12.932923828326926 0 0 0