LAMMPS data file via write_data, version 2 Aug 2023, timestep = 0, units = metal

1863 atoms
3 atom types

-14.134275099350104 14.134275099350104 xlo xhi
-14.38205049435311 14.38205049435311 ylo yhi
-13.495756345922558 13.495756345922558 zlo zhi

Masses

1 55.847
2 1.008
3 1.008

Atoms # atomic

1490 1 -10.255134820319567 -11.56164567060539 -11.618909058634218 0 0 0
1597 1 -10.80218326665542 -13.923570157320862 -11.914219278863236 0 0 0
1612 1 -12.4746836978888 -10.185529110435674 -11.195614726620384 0 0 0
1595 1 -10.691067347252323 -9.843105478831042 -9.568171262162794 0 0 0
1596 1 -11.131648141571826 -12.279904314678905 -9.51258494510093 0 0 0
1691 1 -13.192315031114235 -10.9309516194806 -9.012369578353143 0 0 0
1489 1 -9.082636875930657 -13.519380499831698 -10.212303711243004 0 0 0
963 1 -12.77952190895521 -12.693124075268639 -11.278081651124065 1 0 0
1584 1 -13.777626324769786 -13.40195924716061 -9.05045048387504 0 0 0
1503 1 -9.69576554546612 -9.143754436229294 -11.762757874785594 0 0 0
46 1 -11.58008912576553 -9.550523531913118 -13.389743138865482 0 0 1
9 1 -11.923616828177078 -11.852738292139769 -13.474717916539694 0 0 1
941 1 -14.020431192110403 -10.778633651308535 -12.934045373894708 1 0 0
1863 1 -12.514850623405934 -14.34849587486988 13.413003344067182 0 1 -1
1488 1 -8.610543621737362 -11.198149569374241 -10.121166638264437 0 0 0
1504 1 -8.137680456930276 -12.88631446893237 -12.321261662393784 0 0 0
1385 1 -6.484504065486732 -12.485460482289698 -10.537689616372843 0 0 0
1401 1 -7.648112270096246 -10.484176322935536 -12.222368702426452 0 0 0
1418 1 -5.1285968913844435 -9.266534785553585 -12.564064313438086 0 0 0
1502 1 -5.986553946267236 -10.013207805558508 -10.416882744968655 0 0 0
1383 1 -4.361001525763513 -9.644276376096776 -8.567815531894398 0 0 0
1384 1 -4.7598387111882285 -12.01570165444543 -8.923071562936503 0 0 0
1290 1 -3.991923100030924 -11.311584762246834 -10.892388747518073 0 0 0
1386 1 -4.445889939974265 -13.742650834916196 -11.021066235252418 0 0 0
163 1 -5.544041992815792 -11.680620115857474 -12.617718962470061 0 0 1
1372 1 -7.560562624179752 -13.105485983302312 -8.47689527069113 0 0 0
1293 1 -3.6753492994727868 -13.120247645828384 -13.256934885179543 0 0 0
1487 1 -6.941311940088683 -10.800036140384686 -8.276534960231423 0 0 0
164 1 -6.031426502305017 -14.154623131260719 -12.834014907741125 0 0 1
1309 1 -3.524530162842556 -8.977041351462233 -10.779995451196665 0 0 0
1292 1 -3.0517732613681865 -10.71772378728474 -13.126390593112697 0 0 0
1276 1 -2.6802676221266513 -13.485004649747758 -9.270505895405215 0 0 0
1400 1 -1.8523095775132727 -12.672322036596023 -11.541110713052479 0 0 0
1275 1 -2.215884032668084 -10.915344625867963 -9.312219262650778 0 0 0
1289 1 -0.17608956877364257 -12.213747666010612 -9.552399036030078 0 0 0
1291 1 -1.3148418458603714 -10.337937233363386 -11.375896065500381 0 0 0
1187 1 0.6919551436915015 -11.68029317543777 -12.046624435667978 0 0 0
1171 1 1.8001973444503072 -13.552037270627524 -10.178031127101352 0 0 0
1185 1 0.31161373252680136 -9.837987091754286 -9.76484993652145 0 0 0
1186 1 1.1770202119985047 -9.126719784102942 -11.997426496986076 0 0 0
1173 1 0.27646117387883073 -13.95747497389042 -12.036663714734322 0 0 0
1071 1 1.5509522672258083 -11.799346371773458 -7.9610598366607315 0 0 0
1084 1 2.2941999331723384 -11.195538849832541 -10.198128055807878 0 0 0
1170 1 1.9266002394171178 -9.410787320728069 -8.022238838950384 0 0 0
1085 1 2.7588220535062344 -12.88542736533264 -12.485534358268664 0 0 0
1012 1 6.996647102799221 -11.469467543434272 -11.339364610597483 0 0 0
1014 1 6.555447440680725 -13.953627264185027 -11.366607882493398 0 0 0
1083 1 4.460386813127213 -12.513471138824304 -10.670276145374817 0 0 0
998 1 6.139480177455452 -12.047642439785106 -9.065672008245969 0 0 0
1069 1 4.069192299870542 -10.689211604525063 -8.553828373067642 0 0 0
1070 1 3.5876800069303183 -13.110292248737126 -8.466899482954776 0 0 0
1081 1 6.648305792208722 -9.727416733119012 -8.926247233347976 0 0 0
474 1 5.369549883226947 -11.789874319806858 -12.94917989005656 0 0 1
1101 1 5.857427164971826 -9.413560190927456 -13.082568257320032 0 0 0
1082 1 4.93448376502351 -10.145411783615616 -10.729858926072106 0 0 0
1202 1 3.1634260403778054 -10.475648267901663 -12.412101036848144 0 0 0
578 1 7.4650954768612205 -8.959722532583639 -11.153157745867617 0 0 1
726 1 4.778160383065872 -14.247015927571729 -13.106200440406324 0 1 1
1013 1 8.125470527164614 -13.45743212538273 -9.68832941090837 0 0 0
1011 1 8.70593037536271 -11.040523367910906 -9.558950675223642 0 0 0
964 1 12.769054143191292 -13.58932921454245 -10.738212142460078 0 0 0
966 1 9.07062853276061 -12.812423798387275 -11.765075775458394 0 0 0
1027 1 9.56187438763944 -10.463565574482585 -11.799163090560649 0 0 0
962 1 10.750181129392404 -12.362277293024912 -10.188269742327687 0 0 0
973 1 12.203358645054452 -9.416976495167553 -12.253978972286658 0 0 0
937 1 12.450101163362715 -12.093620192594214 -8.490595198563408 0 0 0
1025 1 11.303996135971103 -10.081518070875429 -10.108900436062786 0 0 0
965 1 11.62445498318836 -11.691887451717692 -12.361107154170472 0 0 0
961 1 13.018116588364633 -9.556498283306361 -8.477147641673902 0 0 0
1145 1 11.15352057543725 -14.073858467833984 -12.537130795321316 0 1 0
938 1 13.351363661223642 -11.341670154459857 -10.716239732532046 0 0 0
940 1 13.67613974235533 -13.140311398787352 -13.046536201075618 0 0 0
1010 1 9.367845399555646 -8.698044484817007 -9.485685128862052 0 0 0
956 1 9.873397513342 -13.057782690728281 -7.9616984692841415 0 0 0
970 1 13.925186113321123 -8.772934203309429 -10.655356364327982 0 0 0
1705 1 -12.62081299782836 -8.522962297629318 -8.77624739896047 0 0 0
10 1 -13.54362990273604 -8.183251966331742 -12.902072444656529 0 0 1
1611 1 -11.75032368680992 -7.788831433145115 -11.207006346137401 0 0 0
1609 1 -9.561071167257104 -4.980962411565148 -9.344333543218834 0 0 0
1702 1 -12.167857837417147 -6.068393855193802 -8.860739280290849 0 0 0
1719 1 -11.26698028821561 -5.507489329068854 -11.120951794606334 0 0 0
1626 1 -9.17266816975242 -6.800751017442212 -11.509521999101658 0 0 0
978 1 -13.01511268184753 -5.776299944317643 -12.786957664005596 1 0 0
1703 1 -10.052538680505414 -7.349303411695952 -9.450573596203661 0 0 0
976 1 -13.307899181450432 -4.121880893023377 -10.387770179801539 1 0 0
1607 1 -11.636365741721056 -3.726162205701403 -8.740032621096947 0 0 0
1704 1 -13.833883772910918 -6.442802820368845 -10.483325559308483 0 0 0
111 1 -10.350518773155802 -4.647575056110767 -13.246635926600133 0 0 1
45 1 -10.890001638344598 -7.05693853536672 -13.449987059702412 0 0 1
1625 1 -8.659954052620876 -4.227507359314409 -11.53432498488974 0 0 0
798 1 -12.565060993492478 -3.341058237950385 -12.741577234876772 1 0 1
1610 1 -8.041824722879682 -8.717413217926968 -9.833920513041006 0 0 0
1399 1 -5.498522648705135 -7.697889156141041 -10.309975824709992 0 0 0
1624 1 -6.8663451812075325 -3.8407349316292123 -9.747598475541615 0 0 0
1417 1 -4.593127024148881 -6.81737372466225 -12.52533280924271 0 0 0
1501 1 -7.492465113516154 -6.292094171722914 -9.843582060925243 0 0 0
1518 1 -4.887197519480404 -5.209645684735397 -10.238845206115483 0 0 0
1519 1 -6.610653701298338 -5.647910452329155 -12.001900070408897 0 0 0
1520 1 -7.1685960321549596 -8.007736889571438 -12.093407775689533 0 0 0
280 1 -4.131313554675998 -4.4043472271613044 -12.361799504716586 0 0 1
1500 1 -3.8580875329237063 -7.337802754396722 -8.582221334736804 0 0 0
1516 1 -3.219462308486344 -4.847349838224963 -8.412782319721163 0 0 0
1486 1 -6.378098301108145 -8.351028424063859 -8.136950680421016 0 0 0
1499 1 -5.806978308330438 -5.935715766894866 -8.07848145361046 0 0 0
1497 1 -5.238163609708035 -3.558541685970738 -7.961132505301634 0 0 0
1416 1 -2.8698425866163166 -6.41168581425284 -10.683700334467884 0 0 0
1398 1 -1.714998295543051 -8.499451024545865 -9.028678766967674 0 0 0
1397 1 0.9362551132463537 -7.476281277477128 -9.640740112163687 0 0 0
1415 1 -2.270905555183937 -4.045704526290793 -10.717241408123243 0 0 0
1306 1 -0.3416865439607317 -5.3967986861821835 -11.215965008744128 0 0 0
1414 1 -1.1946799360488924 -6.155639414772525 -9.043634144276997 0 0 0
1305 1 1.3244418291983635 -5.038248308740021 -9.655473624625564 0 0 0
1307 1 -1.0234511598701808 -7.769759166345897 -11.240921331144436 0 0 0
1201 1 1.6940107082785136 -6.721677252605553 -11.899748446021393 0 0 0
1308 1 -2.035029230711073 -5.825429787158775 -13.01010930988189 0 0 0
281 1 -2.664624312839802 -8.280750543274872 -12.915484515784891 0 0 1
1432 1 -0.5897975755305964 -3.729478057271276 -8.949777772263115 0 0 0
1323 1 2.371480220660521 -4.371742978553968 -11.79580167418908 0 0 0
1434 1 -1.5469729124638985 -3.4234825224835213 -13.065655791713 0 0 0
384 1 0.5561516909598883 -4.706228751874951 13.42358922182321 0 0 0
1288 1 2.8431545284758837 -8.776711646941276 -10.257954037886812 0 0 0
1184 1 3.7644520833993216 -8.07942338508514 -12.451032644982853 0 0 0
1199 1 4.016992862618574 -3.959295666877157 -10.126355160171206 0 0 0
1099 1 5.518108045617593 -7.749888705153777 -10.69033861137781 0 0 0
1098 1 6.082829724605313 -5.352091578993827 -10.654885470414989 0 0 0
1100 1 6.322819885206373 -6.987684320345021 -12.886265625366342 0 0 0
1117 1 6.905518724449708 -4.57114440416553 -12.877439388418752 0 0 0
1200 1 3.3608783690195825 -6.39042881998062 -10.226772732722836 0 0 0
1218 1 4.392541609622333 -5.711831896914479 -12.410821125766358 0 0 0
1080 1 4.595355079456398 -8.299290093184606 -8.565739334582982 0 0 0
1198 1 5.1182308146452105 -5.8493299316339815 -8.599831329280333 0 0 0
1097 1 7.131593752113586 -7.212237186856193 -8.856639171971526 0 0 0
1096 1 7.858001557895525 -4.842726407391167 -9.004611992926968 0 0 0
1197 1 5.708440332737206 -3.5063180397110116 -8.369571636787356 0 0 0
1024 1 8.077550261623044 -6.6017868875934855 -11.165009081081323 0 0 0
1116 1 4.882200102086697 -3.278768819538902 -12.41514919484856 0 0 0
1115 1 8.730524498552091 -4.253126413939327 -11.211430725748514 0 0 0
972 1 12.69822772745074 -6.95686185760791 -12.276293400073488 0 0 0
969 1 12.254039651121834 -5.098092087181234 -9.897607513451817 0 0 0
971 1 10.19754014633101 -8.00150503810475 -11.712610026853907 0 0 0
1023 1 11.905296409523425 -7.435723971517589 -10.147990003617714 0 0 0
1036 1 10.644458216765189 -5.57543604165121 -11.676956117519058 0 0 0
1022 1 9.750736741437814 -6.2943413784501825 -9.351052361336553 0 0 0
1034 1 10.330967372075685 -3.7342561090980517 -9.347528874982162 0 0 0
980 1 13.17900932577969 -4.548099690597855 -12.171048322974617 0 0 0
968 1 13.672670427998272 -7.248505109615476 -8.366816004977423 0 0 0
1038 1 8.929917986056113 -5.907786574391116 -13.358111403933886 0 0 0
1037 1 9.561624912516896 -3.5507238357956528 -13.33434098726555 0 0 0
967 1 14.043133123902544 -4.725903038031756 -8.120534953251056 0 0 0
1717 1 -10.759674885747847 -3.129783285299764 -10.953139353684907 0 0 0
1718 1 -11.904896496384435 -0.8551894005587748 -12.60921690653902 0 0 0
1716 1 -12.866226912438583 -1.497203366593359 -10.372608923102636 0 0 0
1732 1 -11.349194449614718 1.4769425751181835 -12.559244116832774 0 0 0
1623 1 -10.266518924162028 -0.622114225103136 -10.803484858865533 0 0 0
1714 1 -10.624531023743474 1.150573415533323 -8.454978793320588 0 0 0
1715 1 -11.13492532606756 -1.248881344903797 -8.550929202376771 0 0 0
1797 1 -12.158923610429525 0.825129577516277 -10.39413070796776 0 0 0
1622 1 -8.986081856166038 -2.6126126653987463 -9.286726128220636 0 0 0
1641 1 -9.41888346806454 0.19456329667570493 -13.077433034582787 0 0 0
1733 1 -9.857810922414968 -2.2350676446305417 -13.081350586178639 0 0 0
1032 1 -13.64029196095692 -2.3583956416732423 -8.209112295183179 1 0 0
1731 1 -9.677952753569583 1.812781832897162 -10.66415666381455 0 0 0
1799 1 -13.988086512253327 0.34553742688424904 -12.204223122924665 0 0 0
1783 1 -13.109532319984499 0.10571334296153978 -8.180850099285099 0 0 0
1536 1 -6.025934660577809 -3.16921564226573 -11.987637006929734 0 0 0
1621 1 -8.559312482801023 -0.1924274555728509 -9.116059841391252 0 0 0
1642 1 -8.167185255142236 -1.8323887175979525 -11.551371252692167 0 0 0
1517 1 -4.428359595525347 -2.7656329447868675 -10.210763690350696 0 0 0
1535 1 -5.674452401971859 -0.6404071296339726 -11.94452952005593 0 0 0
1640 1 -7.594604369846153 0.5321382921680105 -11.320728101658341 0 0 0
1533 1 -5.077424149898187 1.7063270137610544 -11.786133556428815 0 0 0
1515 1 -6.522287086169005 -1.466140959070092 -9.709239046674558 0 0 0
1532 1 -3.984320186480801 -0.4345316183355603 -10.165803385743976 0 0 0
1638 1 -5.932657101625804 0.9043341504362079 -9.554719904955185 0 0 0
1433 1 -3.526739323885259 -2.081925034521783 -12.40361862147035 0 0 0
1429 1 -3.2986681694263584 1.9215620119275059 -10.102037919842283 0 0 0
1729 1 -8.008843440800824 2.179017516045416 -8.986517141906685 0 0 0
1550 1 -3.01773091212144 0.325322349026429 -12.457478942371026 0 0 0
1514 1 -4.75728389177042 -1.1900250784212094 -7.917782355360698 0 0 0
1513 1 -4.0779072851977265 1.394206169992648 -7.815380207385247 0 0 0
506 1 0.21859148376458748 -3.0091947365843392 -11.23293165880728 0 0 1
1413 1 -2.6335600274041155 -2.5522474080985855 -8.55901667887321 0 0 0
1304 1 1.9005415410110178 -2.6424263990950347 -9.52788894130776 0 0 0
1534 1 -1.9507172131268717 -1.7428639529646208 -10.730641682942718 0 0 0
1322 1 0.7275019743280762 -0.6911622728656592 -11.261651636230642 0 0 0
1430 1 -0.1309568590021577 -1.2886730454935407 -9.173998026529643 0 0 0
1431 1 -1.3145168773100675 0.696456631758517 -10.737850848916326 0 0 0
1320 1 1.437647063142192 1.708903627748768 -11.248446604715506 0 0 0
1447 1 -0.39307656536268176 1.2897523205355412 -12.878335185684577 0 0 0
1428 1 0.5299958087326111 1.1043298377075086 -8.921780806309698 0 0 0
399 1 -0.9126892553224231 -1.0359676732977796 -13.031561273959099 0 0 1
1411 1 -2.032502172524028 -0.0447923431205588 -8.448584079193456 0 0 0
1319 1 2.558286926077743 -0.11778544165725258 -9.566576248726177 0 0 0
1217 1 2.8507858466960148 -1.9461897694359767 -11.760427016922929 0 0 0
1321 1 4.638930444950985 -1.5631044235600573 -10.0800419741135 0 0 0
1215 1 7.186105315445319 -0.4687203871982142 -10.618175062460102 0 0 0
1216 1 6.5556156377325845 -2.9506127935262505 -10.581286547836743 0 0 0
1233 1 5.3736125471705645 -0.7531411187971511 -12.287017052374628 0 0 0
1232 1 5.827605030164511 1.6005652809390778 -12.327672230072292 0 0 0
1130 1 7.410547092972346 -2.1508026363990904 -12.863249588332126 0 0 0
1213 1 5.127741555446219 0.8425160247878232 -9.984632303182885 0 0 0
1334 1 3.4277984986635506 0.514207373140394 -11.76663318451352 0 0 0
1214 1 6.209664349099745 -1.1877072318428787 -8.342615038186509 0 0 0
1212 1 6.7848328391066755 1.209707934600166 -8.267862208481546 0 0 0
1231 1 7.6598644343324 1.7978226957744248 -10.635621661232966 0 0 0
1129 1 8.003140932920365 0.21396332011901364 -12.841852499012296 0 0 0
1318 1 3.0655715590181973 2.2880163594844163 -9.619202172197726 0 0 0
1113 1 8.192033380542616 -2.4904856743174157 -8.836257367731296 0 0 0
1035 1 11.209497424775241 -3.2785477620912964 -11.591075105082572 0 0 0
1114 1 9.175118846235891 -1.8093451327455075 -11.198554485593757 0 0 0
1112 1 8.700890296647716 -0.16721460806603972 -8.78285033226965 0 0 0
1033 1 10.855852667853155 -1.2180312560955286 -9.31973066818955 0 0 0
1044 1 11.693794682775843 -0.7440306359892297 -11.450231797219974 0 0 0
1042 1 12.285764948251197 1.6001420384648508 -11.574190694920691 0 0 0
1128 1 9.57060514391681 0.636040032662299 -11.095459603411319 0 0 0
1031 1 11.355721447481473 1.1529133906745592 -9.3178830805565 0 0 0
975 1 12.74522110477974 -2.645603578565259 -9.802423253932599 0 0 0
1784 1 13.49640599828019 -0.19690291254951298 -9.780609737951632 -1 0 0
1043 1 10.60565552391755 1.3715126774856046 -13.26745816690231 0 0 0
1045 1 10.018348283927908 -1.098313212846577 -13.380002629387974 0 0 0
977 1 13.660764469315177 -2.056676413436138 -12.082881773312124 0 0 0
1110 1 9.341493764170016 2.47428344302719 -8.771382826972577 0 0 0
1040 1 13.946750192695925 2.1476029479740717 -9.847555054408353 0 0 0
1782 1 -12.60876839957252 2.5698904773439573 -8.093563963330638 0 0 0
1745 1 -8.83943856684281 2.479701055404025 -13.057508822069018 0 0 0
1730 1 -10.755864586660522 3.8509417169480074 -12.510958781055992 0 0 0
1744 1 -10.323178905879573 6.422354782701031 -12.440847088663359 0 0 0
1796 1 -11.66877379399032 3.2903334568249782 -10.264764960747147 0 0 0
1808 1 -11.191045991223657 5.567382476403253 -10.199310873488425 0 0 0
1809 1 -12.777635684467096 5.163666400430074 -12.065324986876899 0 0 0
1743 1 -9.156402147597193 4.219657127621243 -10.705161996275798 0 0 0
1798 1 -13.377645524126597 2.7363301359900305 -12.04400196262025 0 0 0
1795 1 -10.121778194081152 3.5130983870496664 -8.461054106157576 0 0 0
1837 1 -9.487571817211828 5.869111154294426 -8.369478734175967 0 0 0
1133 1 -13.808608256511484 4.760248952020781 -9.742437561627318 1 0 0
1847 1 -12.246575299424208 7.591214963732284 -11.87695179243044 0 0 0
1845 1 -11.50265321223148 7.3331762655688415 -8.15635551348349 0 0 0
1742 1 -8.619726996759479 6.491446037032702 -10.711301028354198 0 0 0
1143 1 -12.06914552115046 4.989448372729992 -7.928583702205399 1 0 0
1654 1 -8.313576569559645 4.9217529021480715 -13.01464378202116 0 0 0
1639 1 -7.149365056730293 3.008870561914623 -11.247702949845642 0 0 0
1652 1 -6.5270623072209535 5.461828221196484 -11.252442545030217 0 0 0
1653 1 -4.476659521806729 4.020863395992546 -11.870981204331091 0 0 0
1531 1 -5.421369401040902 3.298653974063285 -9.609713271779624 0 0 0
1637 1 -7.409519549336756 4.544019089349284 -9.069279777403 0 0 0
1651 1 -4.726127077117729 5.679346205677845 -9.570921570572612 0 0 0
1741 1 -6.9218059753905985 7.01958938532432 -9.039520930390674 0 0 0
1662 1 -3.9841149545852783 6.571476970856658 -11.749362678136048 0 0 0
1753 1 -7.749807230665315 7.353120227950157 -12.920390851060777 0 0 0
1751 1 -6.058386755176848 7.90464149682753 -11.230364776098918 0 0 0
1530 1 -1.6119419718576093 2.354730206227874 -8.319810874381162 0 0 0
1335 1 2.1492295990688444 2.4122793922740335 -13.462335292021423 0 0 0
1546 1 -2.7768655147789545 4.370781161714593 -10.092290994900457 0 0 0
1547 1 -2.3267242526758185 2.704647452132537 -12.226437894839012 0 0 0
1558 1 -1.9855136694135638 5.115261322501457 -12.338518549196445 0 0 0
1545 1 -2.2182620234406176 6.805038134081144 -9.996727965141748 0 0 0
1444 1 -0.26904424163156015 5.5084097668931875 -10.579026256736134 0 0 0
1445 1 -0.6231849112111387 3.0082957632562852 -10.597247108125744 0 0 0
1456 1 0.16857915434305148 3.79019171337913 -12.935661347385825 0 0 0
1443 1 1.542258596535465 5.976648455093876 -8.942138546393943 0 0 0
1427 1 1.0527058628406163 3.492559911449373 -8.938992758474232 0 0 0
1346 1 0.6841925357872611 6.191092906659556 -12.856527385911903 0 0 0
1333 1 1.8018788072665402 4.215761026593363 -11.210715921305477 0 0 0
1544 1 -0.9721984456061445 4.83997935532652 -8.256406961439737 0 0 0
1542 1 -0.5973581399173931 7.227228462547675 -8.274204511795272 0 0 0
1455 1 -1.4013144632482994 7.642492442973708 -12.279696602929334 0 0 0
1454 1 2.400716533179141 6.701110730993744 -11.077902035529767 0 0 0
1556 1 0.3873316554293762 7.902882270688398 -10.546140053962395 0 0 0
1347 1 2.680878555336834 4.822297069716953 -13.43702394098572 0 0 0
1230 1 6.390053326633987 3.9619120819894533 -12.215168471032358 0 0 0
1244 1 6.871523193499103 6.272752879875455 -12.161008889515895 0 0 0
1345 1 4.316545059884605 5.321447172300925 -11.742490997737768 0 0 0
1228 1 5.685755410770559 3.3635146159817992 -10.065138958803146 0 0 0
1331 1 4.182462325181875 6.9876479188509215 -9.291778299766769 0 0 0
1332 1 3.624321255885304 4.608899695589624 -9.503838821560215 0 0 0
1229 1 3.8584307312702446 3.0126927041595195 -11.694120621675493 0 0 0
1125 1 6.170049648185907 5.813598594488923 -9.950114145008326 0 0 0
1211 1 7.206412254583528 3.736720719829087 -8.11318540461423 0 0 0
1227 1 7.857330622105268 6.025974001677859 -8.208222584375225 0 0 0
1344 1 4.798995430089311 7.761318855509721 -11.664174246892907 0 0 0
721 1 3.2427231079827035 7.327787570783151 -13.294660809776524 0 0 1
1122 1 8.061915937875272 4.290331909816462 -10.455017422812972 0 0 0
1127 1 8.480272993991166 2.763492868675833 -12.762011352802592 0 0 0
1138 1 9.003549279653674 5.129756410371758 -12.587498131179402 0 0 0
1126 1 10.163358502898229 3.0060958349459845 -10.967584381022398 0 0 0
1136 1 10.727552758220396 5.391384844340394 -10.97385993068745 0 0 0
1123 1 8.766038001812197 6.820316497944479 -10.275347622331685 0 0 0
1048 1 12.838260692412023 4.0484086079192245 -11.492729701569132 0 0 0
1109 1 9.98212226083031 4.842057285655592 -8.71911131016137 0 0 0
1041 1 11.052043382768149 3.7427194750477426 -13.145975000736197 0 0 0
1242 1 9.547886969840961 7.39207010499851 -12.465010730464781 0 0 0
923 1 11.671556524910821 6.185816448411636 -13.178257731738174 0 0 1
1047 1 13.364093545627027 6.656270385066495 -11.329386160118485 0 0 0
1137 1 11.242305306044566 7.838680086597915 -10.93131898273219 0 0 0
1794 1 -10.641550590003995 8.02130591628541 -10.233641505949976 0 0 0
1807 1 -12.79674840731098 9.162587352350954 -9.676300869648529 0 0 0
1853 1 -11.768632347136606 9.931164275567571 -11.886973796988707 0 0 0
1806 1 -8.939448863613617 8.346767911986802 -8.44122846649652 0 0 0
1817 1 -9.711415438769542 8.704675346109621 -12.451649165575454 0 0 0
1814 1 -9.58153341291779 12.882928546627738 -10.177567363480064 0 0 0
1850 1 -11.37682333532157 12.360984941933761 -11.80592007934767 0 0 0
1844 1 -10.166778163009008 10.446094372903548 -10.144705396315524 0 0 0
1820 1 -9.253198961250865 11.111216577317915 -12.3267753753271 0 0 0
1862 1 -12.173401102300264 11.64793129603941 -9.72062560463444 0 0 0
1851 1 -13.898541821001636 11.35916819856314 -11.225483750832483 0 0 0
1819 1 -8.653743080256056 13.549705785766257 -12.325183784202512 0 0 0
1805 1 -11.011614268570957 9.615133737837255 -7.960266801398458 0 0 0
1813 1 -8.493531774359749 10.798154014604133 -8.358106403036533 0 0 0
1650 1 -4.267634583505819 8.153478657157255 -9.505592331336668 0 0 0
1815 1 -8.136572868924315 9.108877341844686 -10.695464668994461 0 0 0
1752 1 -7.247056564638322 9.864055315034463 -12.8054282697402 0 0 0
1661 1 -5.414453520281889 10.153469596240804 -11.081396700528119 0 0 0
1750 1 -7.479749712676011 11.403470208219272 -10.611817266238127 0 0 0
1755 1 -4.964440909337499 12.604870891027687 -11.161646598183136 0 0 0
1756 1 -6.632584660665411 12.185751588964354 -12.761232278103861 0 0 0
1748 1 -5.807301374996388 11.909511812544888 -8.856711043746895 0 0 0
1749 1 -6.418488722238159 9.399458315766715 -8.92880838881429 0 0 0
1660 1 -3.6481471408717 10.533187350281015 -9.407734341312953 0 0 0
1557 1 -3.4166377682782816 8.950397069429957 -11.672796079207899 0 0 0
1812 1 -7.906591743108438 13.112990532384146 -8.362878175787248 0 0 0
1659 1 -3.230913283049988 13.032153897957418 -9.293201151286986 0 0 0
1402 1 -4.11048617793127 13.222924444472223 -13.32587646851906 0 -1 0
1757 1 -4.627552351552318 10.878112885925052 -13.483302228539568 0 0 0
1667 1 -2.9404466989080795 11.25390579879781 -11.649286281549799 0 0 0
1555 1 -1.6862973171397417 9.187712558373551 -10.025346405672927 0 0 0
1561 1 0.7754446080525987 10.374002938056378 -10.349123175777995 0 0 0
1562 1 -0.35537442862842994 12.474607058609173 -12.122544556657568 0 0 0
1563 1 -0.8354189629662532 10.015401528176692 -12.224202014711544 0 0 0
1460 1 1.678021191541168 11.079151354891525 -12.609920840074878 0 0 0
727 1 1.2855019682260576 8.70034880976625 -12.716409306926034 0 0 1
1665 1 -1.3283857249423772 11.595909409973835 -9.975635311750096 0 0 0
1458 1 1.3533727474615205 12.836066599358052 -10.26253387680211 0 0 0
1451 1 2.06424547677892 8.36719629165534 -8.750542647976552 0 0 0
1554 1 -0.12952466238331972 9.542745621783535 -8.244011705805216 0 0 0
1559 1 0.39776394228224277 12.063712916296947 -8.277007251325806 0 0 0
1343 1 6.725128000532068 8.10793307265443 -9.83832955345926 0 0 0
1553 1 2.5699399677724504 10.75432840478138 -8.61986265675225 0 0 0
1453 1 2.936005080453649 9.179694633445315 -10.971299180200136 0 0 0
1459 1 3.360430652416712 11.517531978992036 -10.814335593038038 0 0 0
1241 1 7.4904729283960965 8.72518002775439 -12.067389893662272 0 0 0
1351 1 5.958425060578191 12.633578735873648 -11.378193515070219 0 0 0
1353 1 5.440542164793518 10.16364346897204 -11.538790856693938 0 0 0
1342 1 5.153716886155129 11.995950630536697 -9.277489474295702 0 0 0
1452 1 4.610311818315639 9.3695327986621 -9.31205817458671 0 0 0
1352 1 7.005175077995611 10.516041869039913 -9.783359795713253 0 0 0
1350 1 7.7754042733294515 12.804776094604847 -9.618832864900362 0 0 0
1457 1 3.034149478182913 13.098369783083683 -8.60593028982345 0 0 0
1461 1 3.7158260705487027 9.675854562467041 -13.213842315129307 0 0 0
1250 1 8.058071094060816 11.158285826509719 -12.037994846321501 0 0 0
822 1 4.190711873274237 12.191798045015311 -12.995655815662019 0 0 1
1135 1 10.830396894891857 9.466235258969554 -8.707477037643361 0 0 0
1240 1 9.068551039562207 9.331406876717566 -10.345814877713199 0 0 0
1357 1 10.575277622953257 12.30009903711846 -12.573086835463934 0 0 0
1248 1 9.718408095620978 11.616740165326142 -10.315209366535814 0 0 0
1252 1 12.195168073463607 12.7936243465622 -10.868434938383633 0 0 0
1246 1 11.471230779982553 12.007847547907655 -8.612686899166736 0 0 0
925 1 10.004606264984867 9.878051668917205 -12.541087216588782 0 0 1
1050 1 12.637524299525845 11.00078923923785 -13.061033046962386 0 0 0
1144 1 12.141821881782137 8.627829765421058 -13.118474528532992 0 0 0
1247 1 11.661658962686237 10.298941396545995 -10.931065944476265 0 0 0
1249 1 13.360934458335704 10.47380977779492 -9.124873420185562 0 0 0
1148 1 13.22575189081652 13.319638516825801 -13.057029389568674 0 0 0
1237 1 8.984266175970584 10.880367181327472 -8.120560094152466 0 0 0
1348 1 9.541966458678553 13.324165230718602 -7.866263657895431 0 0 0
1142 1 13.834244353137413 8.938225463355952 -11.488027701716568 0 0 0
1239 1 8.494896449695458 8.375032112239342 -8.08948060239402 0 0 0
1846 1 13.965277164031908 12.938531980192831 -9.038683082054106 -1 0 0
1147 1 -13.45357129572481 13.760873876249914 -11.302593152065723 1 0 0
1854 1 -11.598829014313576 14.181170639905673 -9.615155566797485 0 0 0
1754 1 -5.392478937935115 14.34892529471534 -8.67568599268293 0 0 0
1818 1 -7.035529523369952 13.88694405366423 -10.55822600680606 0 0 0
1060 1 0.9547618886246116 -14.264176812688673 -8.12845824094401 0 0 0
1564 1 2.1499852029661692 13.466708127005905 -12.314407360461113 0 0 0
1277 1 -2.523746730728851 13.717747069969619 -11.599806911154417 0 -1 0
1560 1 -0.7193912742697357 14.12792442182944 -9.872945693147164 0 0 0
1349 1 5.600700498663629 14.261756869257816 -9.157560639252267 0 0 0
999 1 3.9693729279274397 14.05199996327837 -10.853929542879833 0 -1 0
1356 1 8.479424017465183 13.519819662246576 -11.833613748895234 0 0 0
939 1 11.86539871756579 14.355252677308808 -8.55435330944266 0 -1 0
1355 1 10.211413503586657 13.91882346637659 -10.212824746565943 0 0 0
1848 1 -10.030703086741726 -14.204936455978208 -7.90251173772223 0 1 0
1477 1 -9.468538483852301 -11.906285258517968 -7.826961481616031 0 0 0
1594 1 -9.108925011224052 -9.57942298388306 -7.802259553933788 0 0 0
1598 1 -12.946416068242844 -13.743034750776706 -5.072693831932126 0 0 0
1582 1 -11.599955333089596 -10.63704115169189 -7.269856565104155 0 0 0
1583 1 -11.082925126857962 -13.2887404659535 -3.3720963949169196 0 0 0
1580 1 -9.914164345144673 -10.032382084238957 -5.505798262352252 0 0 0
1581 1 -10.352951819579244 -12.514982259705448 -5.572147695822264 0 0 0
1679 1 -12.28870468537447 -11.177210115660035 -5.015928921823068 0 0 0
1571 1 -10.649299130538456 -10.880464668053872 -3.2144176818113888 0 0 0
1680 1 -12.036696245753076 -13.03657881742548 -7.124493865476962 0 0 0
1690 1 -13.628970121067299 -9.26150899287649 -6.618895818799935 0 0 0
1668 1 -12.666642171738138 -9.665677867858781 -2.6357877485697845 0 0 0
1573 1 -13.146856094455023 -12.009258814607632 -2.7662121399080526 0 0 0
1670 1 -11.949982730131236 -8.781833882672409 -4.8861966736936004 0 0 0
1468 1 -8.627998773205686 -12.259113482983423 -3.907220885549034 0 0 0
933 1 -13.737236979394359 -14.231523034674229 -2.8156641228049786 1 0 0
1476 1 -8.110980865625171 -13.819327176860673 -6.1627616892978345 0 0 0
1579 1 -8.0829004903045 -9.72171766416714 -3.7594374441109366 0 0 0
1475 1 -7.77314378459208 -11.384822942725435 -6.125178113556395 0 0 0
1363 1 -6.588933299879693 -13.509336850911964 -4.374469329307347 0 0 0
1370 1 -5.745664590633746 -12.85123713537785 -6.607600562277566 0 0 0
1474 1 -6.1343270286499605 -11.078067443018943 -4.308928765901314 0 0 0
1369 1 -3.998378224333436 -12.402454908106384 -4.835896037609903 0 0 0
1382 1 -5.15117418230726 -10.444827400872601 -6.314972609304963 0 0 0
1368 1 -3.401179108552647 -10.054461460586854 -4.687983388030842 0 0 0
1371 1 -3.707372586687077 -14.142496928477843 -7.1528797857096995 0 0 0
1734 1 -4.925526541998636 -13.057892089627817 -2.5170145210087664 0 1 0
1485 1 -7.306172246973983 -9.059802376942525 -6.041096377802202 0 0 0
1264 1 -3.1040138893515987 -11.70297352873276 -7.056543840469348 0 0 0
1361 1 -4.349611565859506 -10.725969844430486 -2.6164346532833775 0 0 0
1273 1 -2.6352609088542636 -9.324259147564586 -6.916636488183344 0 0 0
1161 1 -1.0455737054317744 -12.976525449170614 -7.568945477772838 0 0 0
1172 1 0.5969831847956861 -12.59650825266158 -5.854944388751573 0 0 0
1274 1 -0.5068678892241572 -10.558725716657122 -7.4692445328410875 0 0 0
1262 1 -1.3599051350739462 -11.224432895433404 -5.347154563007219 0 0 0
1263 1 -1.9150137609593436 -13.68369216659271 -5.293678726621849 0 0 0
1272 1 1.201278995520065 -10.102510808401894 -5.687831705521716 0 0 0
1367 1 -2.120923767078814 -11.976273986304895 -3.1763318071580056 0 0 0
1261 1 0.28344022843254635 -10.823851265534051 -3.510372119712386 0 0 0
1151 1 -0.12618905306543837 -13.440617802870781 -3.7098902802751255 0 0 0
1260 1 -1.6453499526153887 -9.602837935028674 -2.9574854034222042 0 0 0