LAMMPS data file via write_data, version 2 Aug 2023, timestep = 0, units = metal

1873 atoms
3 atom types

-13.89166169312674 13.89166169312674 xlo xhi
-14.193831087144597 14.193831087144597 ylo yhi
-13.912016232357741 13.912016232357741 zlo zhi

Masses

1 55.847
2 1.008
3 1.008

Atoms # atomic

1863 1 -10.060704707314056 -10.293461333955648 -10.225121504019455 0 0 0
1859 1 -13.170036634183068 -12.634173513750364 -8.813333965764006 0 0 0
1848 1 -12.117207427034563 -11.700893462898913 -11.478893179928848 0 0 0
1846 1 -11.420243671868448 -9.411240208118507 -12.08499566283988 0 0 0
1240 1 -12.47329981223728 -10.332170715828601 -9.454996838648103 1 0 0
30 1 -13.543920829203582 -10.825251931945704 -13.25582348591918 0 0 1
1865 1 -10.830308082961832 -12.589449685988999 -9.698132631635476 0 0 0
1869 1 -10.441815920894687 -13.914694327141536 -11.656694101771446 0 0 0
1850 1 -9.74672617405053 -11.611412806455975 -12.284956401189127 0 0 0
1644 1 -12.907122513094194 -14.133951589307504 -10.857267948406673 0 1 0
1872 1 -11.949361675072657 -13.169303880015844 -13.468446881730616 0 0 0
18 1 -9.062989655309018 -9.337978393979714 -12.940402737919667 0 0 1
1838 1 -8.724676212637306 -11.02240485051963 -8.342384996280213 0 0 0
1839 1 -8.284108027682255 -12.434289304310024 -10.3925412507962 0 0 0
1837 1 -7.720613181533957 -10.05969443326158 -11.023711288728768 0 0 0
1791 1 -6.335543068916821 -10.86582466157778 -9.086765108364398 0 0 0
1840 1 -7.002189155558933 -13.198928712244784 -8.47579267467476 0 0 0
1849 1 -5.360044289354249 -9.928037395670893 -11.667559396667277 0 0 0
1851 1 -6.004953187068339 -12.25728853070113 -11.144913084598429 0 0 0
1870 1 -8.006313535805878 -13.955495844696308 -12.313179530059433 0 0 0
27 1 -7.5227139984478235 -11.516855306705345 -12.958776083990534 0 0 1
1852 1 -5.614826752051625 -13.894387136085024 -13.10277407442773 0 0 0
1793 1 -4.637115955639517 -13.230109204813994 -9.329403537580111 0 0 0
1806 1 -3.9630201049449525 -10.913513232040039 -9.910175686616775 0 0 0
170 1 -6.7333960679864795 -9.256056111023735 -13.506819836122704 0 0 1
1807 1 -3.5773198583527197 -12.286727345636363 -11.815740593167574 0 0 0
26 1 -5.0535521817585 -11.56234009772527 -13.683846513936722 0 0 1
1805 1 -3.0762840936434976 -9.832188618550978 -12.421396582817696 0 0 0
1789 1 -7.910540490160341 -8.724140894312299 -8.897102436997727 0 0 0
1725 1 -1.576675661999241 -10.709308855812038 -10.65265506775002 0 0 0
1727 1 -2.152545853102991 -13.14673617724825 -9.954309872010423 0 0 0
1746 1 0.9013035078530152 -10.53759052456447 -11.38570720244495 0 0 0
1726 1 -0.04487664599355412 -11.47513133460415 -8.813393668048406 0 0 0
1816 1 -1.195888852428192 -12.181831868681552 -12.545522060990855 0 0 0
1748 1 0.22821386796033494 -12.838194638492512 -10.82108347649265 0 0 0
1815 1 -0.6907804807768958 -9.690774300713919 -13.078474442218797 0 0 0
1614 1 0.5124007237657295 -9.190670177231427 -9.299121612772165 0 0 0
1724 1 -1.8842453851906118 -9.387818121061322 -8.52316336090453 0 0 0
1747 1 1.172695475850892 -12.137110789912951 -13.302043802449534 0 0 0
1728 1 1.6483014976045283 -13.628715543523663 -8.88395333599443 0 0 0
1616 1 2.3273333889904713 -11.312133809903157 -9.640524431647655 0 0 0
1642 1 2.6924105922027515 -12.81037282937169 -11.50195715780909 0 0 0
1743 1 1.778266142503254 -9.708196669405663 -13.863497437760662 0 0 0
1639 1 2.8937795024868613 -8.979684344413153 -10.057418921566658 0 0 0
1640 1 3.2301220713408156 -10.480623294371972 -12.246548555863644 0 0 0
1618 1 3.902861659027824 -13.559590453689607 -9.690063896171718 0 0 0
1641 1 4.604973188691588 -11.274562784067712 -10.316898334143923 0 0 0
1659 1 5.765467408348698 -10.300991182346792 -12.8617044456739 0 0 0
1660 1 5.09021001674985 -12.652240141967809 -12.266421873050723 0 0 0
1371 1 6.735947331401647 -9.86917070990021 -8.971134353186347 0 0 0
1643 1 6.331092885115456 -13.620070060965116 -10.364348720470801 0 0 0
1511 1 5.31141958136504 -8.975185014602285 -10.900095572011432 0 0 0
1513 1 7.011889749685107 -11.196107910365743 -11.019810971605944 0 0 0
1539 1 7.581185660399353 -12.598173533650355 -12.978377660297673 0 0 0
1536 1 7.593061943759132 -8.789003799791121 -11.567045061956852 0 0 0
1537 1 8.037985428631476 -10.255377054886042 -13.518993956431261 0 0 0
1489 1 6.117858126855602 -12.130634216396642 -8.355448364463392 0 0 0
1514 1 8.376287451180833 -11.988334433439487 -9.176860172561899 0 0 0
1868 1 13.851336740646254 -9.418685600604473 -11.233248159175275 -1 0 0
196 1 13.595130187900232 -13.191520002053347 -12.666115271066948 0 0 1
1864 1 13.296738626961961 -11.932802006699726 -10.67962567179746 -1 0 0
1372 1 12.916046512061616 -10.341320093695028 -8.686528298349561 0 0 0
1396 1 9.078056261227282 -9.721236396760197 -9.707597936004763 0 0 0
1871 1 10.753223032494414 -11.854241653026142 -9.839529271085521 -1 0 0
1397 1 11.26263248172463 -13.19941200158301 -11.832104544618177 0 0 0
1515 1 8.790246941456399 -13.376815530809973 -11.12638516552803 0 0 0
1538 1 9.414838132021277 -11.059220700145246 -11.697813087536371 0 0 0
1414 1 11.881611992207414 -11.053824787020279 -12.348746381142565 0 0 0
1862 1 11.534246746865868 -9.659026746665525 -10.387397358659634 -1 0 0
1395 1 10.02602493646583 -8.860014313403596 -12.245894937142833 0 0 0
1278 1 12.319533543505688 -8.602003039786045 -13.086869258802857 0 0 0
20 1 9.835850281129833 -12.530893584338058 -13.790358264501181 -1 0 1
1398 1 12.620402308306076 -14.19292446869647 -10.028813034513954 0 0 0
959 1 10.198233414786205 -14.165320096733957 -9.296956053453343 0 1 0
19 1 -12.9535197998224 -8.490117299189489 -13.831881202037692 0 0 1
1835 1 -11.805240546623976 -8.03403352402897 -10.06615463877906 0 0 0
1845 1 -8.921329775058764 -5.65195385567589 -11.352147845182163 0 0 0
1855 1 -8.507192951620816 -7.091899643072488 -13.293538150807926 0 0 0
1844 1 -10.395358001923722 -4.641634841780505 -13.029041239172267 0 0 0
1867 1 -10.947925075964143 -7.057208256707111 -12.642298955163959 0 0 0
1833 1 -11.18670867112279 -5.602343127919017 -10.71904428534813 0 0 0
1785 1 -9.084899604110767 -4.167811560192588 -9.363158739821134 0 0 0
1834 1 -9.863620888961275 -6.423262505546105 -8.735571664009065 0 0 0
1277 1 -12.721015104220355 -4.840034771396292 -12.280488104791377 1 0 0
1847 1 -9.456219861694166 -7.959708115108304 -10.750769093657986 0 0 0
1139 1 -13.058116701670592 -3.4050526847900837 -10.158361578331341 1 0 0
1259 1 -13.434327981527227 -7.101550706252341 -11.700224252247637 1 0 0
1258 1 -13.562094121658156 -5.760774917531137 -9.733782220594405 1 0 0
1832 1 -11.407161486465569 -4.058606406239463 -8.51869550441388 0 0 0
1843 1 -10.784528934611485 -3.275652045758937 -10.971560108049525 0 0 0
1799 1 -8.470420057250418 -3.183937892054054 -11.860886323612245 0 0 0
1804 1 -5.684475368246719 -8.57890520657105 -9.587273395540116 0 0 0
1723 1 -3.309767994180154 -8.424322012623778 -10.384117577271251 0 0 0
1787 1 -7.388206696762849 -6.2792075931376585 -9.560458179487528 0 0 0
1800 1 -6.766214669971616 -3.974189455653171 -9.973048629401827 0 0 0
1801 1 -6.640765026678583 -5.428471351807547 -11.987541621984809 0 0 0
1802 1 -5.088023670110358 -6.283599991617184 -10.22260169933065 0 0 0
1719 1 -4.537994850143768 -3.9268335040605926 -10.662750571069122 0 0 0
1803 1 -7.0612179936129875 -7.739542884894285 -11.5315789391114 0 0 0
1813 1 -4.376202763507246 -5.3213544805659705 -12.8702184809754 0 0 0
1814 1 -4.749622913514607 -7.616753659305905 -12.213167232842517 0 0 0
1720 1 -3.0822694845749794 -4.6836086201986955 -8.936392516294873 0 0 0
1703 1 -3.5927606943089057 -7.162269760976911 -8.375389937455294 0 0 0
1812 1 -6.069729990289278 -3.1283038080606307 -12.481388546708002 0 0 0
150 1 -8.062423041823934 -4.667972620225955 -13.88688802817821 0 0 1
1739 1 -3.6695718093338936 -3.0784439681332145 -13.226010522407465 0 0 0
1721 1 -2.658813850875223 -6.029767907860785 -10.903635989763238 0 0 0
1741 1 -1.9988441410923272 -5.328306728139005 -13.480853687358962 0 0 0
1740 1 -2.1114798087514437 -3.812084118889235 -11.494074789033078 0 0 0
1722 1 -1.1956103916313499 -7.073959261583176 -9.209564868549705 0 0 0
1610 1 -0.6652296194974223 -4.556601506466597 -9.41305045003936 0 0 0
1742 1 -0.35763322033917966 -5.902965281054547 -11.568586683751978 0 0 0
1756 1 -2.4746325009070063 -7.489150850957443 -12.940360169157293 0 0 0
1634 1 0.17251130760931233 -3.675658328963772 -12.346269612296183 0 0 0
1744 1 -1.0103092247550602 -8.387383657414723 -11.109551999245141 0 0 0
1612 1 1.1787257754184317 -6.8697438968321505 -9.795313058732582 0 0 0
1635 1 1.5538228337317772 -4.566251750388881 -10.466434800303785 0 0 0
1636 1 1.9856224061418235 -5.848743871233001 -12.542560265541784 0 0 0
1638 1 1.517474915851814 -8.16297251539991 -11.885834202735715 0 0 0
1656 1 2.448300290071497 -3.55232210890685 -13.011008783579298 0 0 0
15 1 -0.05628579255882471 -7.4117661698745 -13.648587280371817 0 0 1
1481 1 1.572313430798328 -3.1695169848146456 -8.445114091933524 0 0 0
1483 1 3.2654524929412574 -5.380656900580899 -8.568222905153286 0 0 0
1637 1 3.451458335866011 -6.662854262403929 -10.597274674918784 0 0 0
1507 1 4.040738224904739 -4.36313576931297 -11.091372396013423 0 0 0
1657 1 4.363858130686555 -5.749718867001931 -13.06290601753726 0 0 0
1509 1 5.870049869556755 -6.645586803555364 -11.197291055258916 0 0 0
1658 1 3.794668658638294 -8.131309001331879 -12.637871899628003 0 0 0
1367 1 7.908348886542473 -5.074328030580173 -9.993352391448697 0 0 0
1532 1 6.503195171151958 -4.3355682667799655 -11.966398533803133 0 0 0
1534 1 8.234655733076636 -6.532406800368023 -12.11181335327899 0 0 0
1510 1 7.313949025940726 -7.476751838408353 -9.55856353254384 0 0 0
1508 1 5.621205381064907 -5.150934487998956 -9.308590404857291 0 0 0
1485 1 4.957858768401863 -7.471754655550286 -8.834269886204336 0 0 0
1535 1 6.13713189412859 -7.951619653372751 -13.374286905886645 0 0 0
1531 1 4.815214633934307 -3.5514214502866572 -13.707171952455736 0 0 0
1506 1 4.023051968146746 -3.025292288035631 -9.0896362030702 0 0 0
1533 1 6.780629469650535 -5.573435439800475 -13.874636947588595 0 0 0
1391 1 8.821928255040323 -4.165432460887615 -12.63456804015259 0 0 0
1861 1 13.49747227784897 -7.949720568570899 -9.42445742191677 -1 0 0
1369 1 9.689537600558918 -7.405386455192634 -10.342759479683284 0 0 0
1393 1 10.571326778744115 -6.4597517225046825 -12.940405593091125 0 0 0
1392 1 10.447366155444872 -5.050493483545242 -10.909757605472128 0 0 0
1412 1 11.239600259137994 -4.0610252870746315 -13.432285904896755 0 0 0
1257 1 12.706892989405919 -4.844226430962525 -11.648798199112488 0 0 0
1394 1 12.012378064582137 -7.26321339121525 -11.11669268176741 0 0 0
1413 1 12.92577132147278 -6.260437194903728 -13.67399235102453 0 0 0
1256 1 12.431901768832898 -3.4173791108454026 -9.55207890779052 0 0 0
1238 1 11.172220304651123 -8.109201016313484 -8.504066956823104 0 0 0
1236 1 11.774120666194904 -5.806001725012134 -9.084494221128471 0 0 0
1234 1 10.122788862862127 -3.6377938283120805 -8.876165730707823 0 0 0
1797 1 -10.093760245637815 -0.9193476370247478 -11.51343652679866 0 0 0
1854 1 -9.863645995744195 -2.293231550822984 -13.506720744096006 0 0 0
1810 1 -9.464681751598409 1.3648127463162858 -12.075991812323846 0 0 0
1798 1 -8.555683170360053 -1.8201483471234727 -9.848507903832228 0 0 0
1796 1 -10.190642604544603 0.5741323435865642 -9.472410667492888 0 0 0
1795 1 -11.723536206706791 1.2979391103586604 -11.218496030862333 0 0 0
1841 1 -11.647529703820057 -0.09312996410971586 -13.355073297738837 0 0 0
1783 1 -10.837495286336067 -1.716510586377833 -9.070904163259254 0 0 0
1842 1 -12.135032469993268 -2.4904904803871553 -13.017455989902231 0 0 0
1153 1 -12.403925634071125 -0.9963767382611657 -10.926020553846609 1 0 0
1049 1 -12.563422260186192 0.47665758843490025 -8.914963609605191 1 0 0
1164 1 -13.422496849941348 2.110869338963953 -13.222965325562452 1 0 0
1138 1 -13.178837791872498 -1.7795386157761826 -8.404529572830112 1 0 0
116 1 -11.111196267248383 2.1287137500068507 -13.89455130929524 0 0 1
1715 1 -7.926830754941926 0.5561975525465019 -10.241109942006345 0 0 0
1811 1 -7.815720200143675 -0.8208803138300773 -12.304067649683699 0 0 0
1735 1 -7.135111854761551 1.4745052770737015 -12.833390286436924 0 0 0
1717 1 -6.157549445476983 -1.5143904334795142 -10.556563883248764 0 0 0
1737 1 -5.452524962083954 -0.7169811094207645 -13.071161954298454 0 0 0
1738 1 -3.8454303115430477 -1.6487166711749026 -11.248305899196277 0 0 0
1754 1 -3.1246089709433846 -0.5794380997721458 -13.825765214337208 0 0 0
1630 1 -3.25160212657285 0.7800504326728106 -11.707856946633239 0 0 0
1736 1 -5.6509988015028565 0.7315814876469258 -11.041378063054657 0 0 0
1753 1 -4.781076994806037 1.613036511833693 -13.58719772121531 0 0 0
1629 1 -3.4280175888221294 2.2589636199494 -9.733240204325774 0 0 0
1606 1 -4.08767203092367 -0.11676055239580307 -9.371890495099667 0 0 0
1604 1 -5.670583219684216 2.175739066621846 -9.155707565385802 0 0 0
1718 1 -4.589616083876775 -2.4279642461701414 -8.642221919251345 0 0 0
1716 1 -6.305305346295884 -0.05335750664933947 -8.634900557947493 0 0 0
1608 1 -2.360880797503876 -2.260157906698675 -9.44096654314578 0 0 0
1631 1 -1.6925137744678498 -0.08926792803169548 -9.893193698334475 0 0 0
1632 1 -1.5293128064188117 -1.5045386188817371 -11.994652154751376 0 0 0
1654 1 -0.8739562120927928 0.8287041775790147 -12.47206022794579 0 0 0
1633 1 0.011348890706361914 -2.334863788167926 -10.183983172226013 0 0 0
1655 1 0.7853272492481889 -1.4716645856415163 -12.787337576166076 0 0 0
1505 1 2.397227879610142 -2.2435856616277476 -10.963981328556399 0 0 0
1503 1 0.5183446275499737 0.003994427719248961 -10.648877102724633 0 0 0
1527 1 1.407167332012218 0.9129895726045962 -13.19794777117032 0 0 0
1504 1 2.1214925102749156 -0.7708905207242687 -8.966088175385103 0 0 0
1502 1 0.5566011000006483 1.6067317478993601 -8.80033511700869 0 0 0
1501 1 -1.1254845096525852 2.3649063080677077 -10.537233101236074 0 0 0
1526 1 1.2693052893243468 2.407462349228874 -11.224428835503627 0 0 0
1361 1 2.7920161099600875 1.6031222228697928 -9.37670406502092 0 0 0
1528 1 2.9183220263904595 0.17772546184373894 -11.455232326235357 0 0 0
1529 1 3.1409915501452446 -1.2568364929953493 -13.328296626504969 0 0 0
1365 1 6.254740331900521 -2.840914611239713 -10.00483227914173 0 0 0
1363 1 4.519705550699932 -0.6391435887086327 -9.60104518091755 0 0 0
1530 1 4.73084758447348 -1.983288983930752 -11.659228757501284 0 0 0
1388 1 6.767956865001693 -0.5255718576230333 -10.338960736069062 0 0 0
1389 1 7.17000462510504 -2.035327305205417 -12.487355417357302 0 0 0
1251 1 7.34886130795115 1.8308623933310368 -10.929307857286634 0 0 0
1386 1 5.163886103175123 1.6796508286605984 -10.143403509366827 0 0 0
1387 1 5.300011124204929 0.40724841915154464 -12.137004281525758 0 0 0
1410 1 7.6003802369194595 0.23511153129577522 -12.995693576242445 0 0 0
1230 1 6.843849524804895 0.93600406842104 -8.399121685403482 0 0 0
1385 1 3.6184892603995387 2.4618910744693263 -12.106462399354282 0 0 0
1409 1 5.787463297987436 2.5167454662113133 -12.858450457487919 0 0 0
1270 1 8.103389922483569 2.588621268728046 -13.352916075738761 0 0 0
1152 1 13.71160639339448 -0.20927843384008682 -12.694264550448784 0 0 0
1232 1 8.54994303967073 -1.3358316928842289 -8.692201990978441 0 0 0
1390 1 8.66055639963561 -2.835999448879244 -10.689788723629574 0 0 0
1252 1 9.233489087296746 1.0901569366750863 -9.173454042536893 0 0 0
1253 1 9.112657261022587 -0.407451648627859 -11.211157508251523 0 0 0
1411 1 9.4081083425982 -1.8078867981566749 -13.262232490596183 0 0 0
1271 1 9.591529005249939 1.8192374805618794 -11.584854964038591 0 0 0
1272 1 9.921997165758892 0.49932867897897637 -13.684887183461232 0 0 0
1255 1 11.063414512823254 -2.6276182155829524 -11.46925248277589 0 0 0
1254 1 10.8138760661488 -1.1931663442105123 -9.43705041135954 0 0 0
1273 1 11.39752795753451 -0.3405598222975392 -11.89436556120255 0 0 0
1137 1 13.084868385574545 -1.111722457234519 -10.142919585760477 0 0 0
1275 1 13.264392342674011 -2.509001123932432 -12.015331244341489 0 0 0
1151 1 13.624168633545054 1.2454897772745568 -10.735338815826896 0 0 0
1135 1 11.4330324488981 1.3307950585502635 -9.847134079834383 0 0 0
1150 1 11.954911516760486 2.080905250474297 -12.453396964330764 0 0 0
1794 1 -11.855138615732782 2.734010876743719 -9.338304282049059 0 0 0
1713 1 -9.633079848658705 2.7660237997913892 -10.24468881326815 0 0 0
1731 1 -12.746847363689989 6.152528531661 -11.582365400059915 0 0 0
1732 1 -11.23552801593203 5.1311253496071405 -9.819152353645432 0 0 0
1733 1 -9.008108476041398 3.728466120969097 -12.689980623656126 0 0 0
1809 1 -11.244682718274019 3.670764229643625 -11.925056769904337 0 0 0
75 1 -10.66452290852973 5.955862520592882 -12.539092813008 0 0 1
1624 1 -10.722965449051252 7.376034298436055 -10.43450838863903 0 0 0
1626 1 -9.065493139750846 5.09687544432707 -10.612629222010941 0 0 0
97 1 -13.013191868818284 4.626050858285302 -13.524998113854672 0 0 1
1649 1 -8.609340711707663 7.57753961652214 -11.351653464116053 0 0 0
1730 1 -12.942441166980995 7.406143483822936 -9.65218458518602 0 0 0
1059 1 -13.472966322196923 3.589378945562375 -11.16765737066147 1 0 0
1625 1 -9.09290605113159 6.597597285890648 -8.762525624852067 0 0 0
1711 1 -13.565034546776342 4.983792805804166 -9.07024484260114 0 0 0
1751 1 -8.393654180508847 5.917471480411356 -13.030861340873237 0 0 0
1627 1 -7.339833541803895 4.357781517375299 -8.94987222094282 0 0 0
1734 1 -7.398123629891447 2.993226691661514 -10.766736705443819 0 0 0
1752 1 -6.740077765251227 3.834412860172696 -13.32733451542058 0 0 0
1497 1 -6.848437380559811 6.797309882141624 -9.529899203730718 0 0 0
1499 1 -4.999592703517674 4.435559807038773 -9.599665975044562 0 0 0
1628 1 -5.032201006259928 3.0591449557430774 -11.641189881799484 0 0 0
1651 1 -6.765682990596741 5.169524777792033 -11.345627234025683 0 0 0
1522 1 -4.490475377183564 6.969399368662861 -10.14013002061927 0 0 0
1523 1 -4.505592662719449 5.330895310691078 -11.903495926772468 0 0 0
1521 1 -6.299232671692904 7.633715172510746 -11.927908495414332 0 0 0
1543 1 -4.041763350129843 7.661614473870513 -12.49149858460622 0 0 0
1357 1 -2.8742362430014836 6.18089640285123 -8.43479619430273 0 0 0
1650 1 -6.0833048705869555 6.153399694434134 -13.860900144432275 0 0 0
1653 1 -2.764558323435855 3.1035767266378844 -12.231843567984688 0 0 0
1524 1 -2.680720980351257 4.680586573278463 -10.310653961661522 0 0 0
1381 1 -2.22564540628289 6.989547286370536 -10.761327908637806 0 0 0
1544 1 -2.2097248298764836 5.367434359696661 -12.74481715500454 0 0 0
1525 1 -0.4299847781518391 3.135470375842379 -13.080263809124682 0 0 0
1383 1 -0.4007103861617569 4.678172141285648 -11.01214372934913 0 0 0
1384 1 1.2155252311970148 3.906431988065995 -9.283270198127177 0 0 0
1545 1 1.8932764680643928 3.162955265679196 -13.734122482967154 0 0 0
1405 1 -0.0336549431718165 6.96575588911241 -11.58021228578481 0 0 0
1382 1 -0.4703845414181185 6.236329304970129 -9.170488984508317 0 0 0
1247 1 1.7440619701505913 6.220621034428822 -9.925974478977505 0 0 0
1407 1 1.7976462210499307 4.729642541518865 -11.826415645394787 0 0 0
1406 1 0.09081991243280818 5.507201810846334 -13.49546019513668 0 0 0
1266 1 2.203635662783384 7.135037514913842 -12.144181375314252 0 0 0
1404 1 -1.8248931574495248 7.78536791467109 -13.135369985416423 0 0 0
1359 1 -1.1868340857295632 3.9146182784187378 -8.608099013954902 0 0 0
67 1 0.3987439673801987 7.904797163762341 -13.860049426452607 0 0 1
1249 1 3.4263683450040325 3.9560527717861813 -9.996782569548806 0 0 0
1267 1 4.026061087972696 6.281272539055793 -10.567135679577913 0 0 0
1268 1 4.069420742942793 4.842319187210771 -12.401545240108007 0 0 0
1269 1 5.694355165008911 4.018480514434293 -10.63953433113129 0 0 0
1146 1 6.279061065275776 6.39449147211768 -11.264612554833034 0 0 0
1282 1 4.458219655334673 7.079354705462405 -12.918033053880732 0 0 0
83 1 6.313138855647711 4.880619834339095 -13.224820665521255 0 0 1
1147 1 8.122712662178905 5.661520891021622 -9.623001559078329 0 0 0
1145 1 4.364408485200062 7.846031816439508 -8.725478668761856 0 0 0
1159 1 6.666402524842379 7.374172588134224 -13.554087463450816 0 0 0
1148 1 7.930004204037427 4.11252760547587 -11.528416614235947 0 0 0
1250 1 7.352940697575249 3.4186935815621577 -8.957108260813158 0 0 0
1055 1 6.899943984041297 7.941943336176456 -9.510352187625859 0 0 0
1131 1 5.6970343816405205 5.532364458582061 -8.708800375313714 0 0 0
1160 1 8.544704947985505 6.514683362288034 -11.926598964779126 0 0 0
1047 1 13.546295805668514 2.7048731354820585 -8.694785815291173 0 0 0
1133 1 9.599642080703866 3.4940405855760357 -9.70430387396145 0 0 0
77 1 12.938700181465027 6.810070932216975 -13.348885301910427 -1 0 1
1068 1 12.512356468454513 4.483224667150159 -12.697782504503856 0 0 0
1067 1 12.832820774632541 6.0329623024 -10.85160220444887 0 0 0
1057 1 10.410768917968046 5.76364096673341 -10.239503736931198 0 0 0
1066 1 10.74708079925523 6.4940719071913815 -12.502113975100297 0 0 0
1149 1 11.990669873667823 3.4736668622443947 -10.467121508145798 0 0 0
1162 1 10.230599274338456 4.106762851758555 -12.203447445227383 0 0 0
993 1 12.52693928850331 7.3040529444722875 -8.876649691412599 0 0 0
1065 1 9.338072775609458 8.02724912231111 -10.32228748846517 0 0 0
1283 1 8.660579847958878 5.018204176082714 -13.826402043362124 0 0 0
1058 1 11.997203365450389 4.938369850845843 -8.435570369182145 0 0 0
1750 1 -13.437491098544163 8.411419317265592 -11.968462769767132 0 0 0
1648 1 -10.928105091833302 8.477512748148781 -12.626104174702435 0 0 0
1645 1 -13.458729828909718 11.858011525440501 -10.183025890833953 0 0 0
1749 1 -12.935699726810132 10.766605427179188 -12.369272321195808 0 0 0
1647 1 -11.712497123992614 9.61440083828188 -10.430708802801288 0 0 0
1493 1 -12.123387631572205 11.116043573149954 -8.453463438628397 0 0 0
1517 1 -11.028596378839662 12.14310783429197 -11.019805354202088 0 0 0
1661 1 -12.237687636156398 13.00123621195045 -12.905251132479318 0 0 0
1646 1 -10.432481554408927 10.87088182957437 -13.141456529872938 0 0 0
1495 1 -10.339295747470963 8.95497170652512 -8.499100881530552 0 0 0
1518 1 -9.720515995825117 11.25473828640074 -9.220048344616217 0 0 0
1519 1 -9.371719915285944 9.909107258801209 -11.13568126131615 0 0 0
1491 1 -11.376854912413608 13.516335441080598 -9.115127994405414 0 0 0
1866 1 -9.875206565026252 13.152987726706899 -13.679672052874967 0 -1 0
38 1 -8.704095619773613 12.135663274023527 -11.939820308923986 0 -1 1
73 1 -8.46739598914025 8.618668149491311 -13.569451664007937 0 0 1
1873 1 -8.916096749366538 13.600946715015306 -9.817037536432878 0 -1 0
1520 1 -8.030110912386418 9.000022603914674 -9.55963046169568 0 0 0
1377 1 -7.290108426474462 11.363339361713736 -10.020542982039842 0 0 0
1542 1 -6.936099985383435 9.8951628163419 -12.00645576536691 0 0 0
1541 1 -6.4100802418103076 12.26618108229877 -12.484538586439388 0 0 0
1379 1 -5.670537184343765 9.230841353935192 -10.209882879857712 0 0 0
1241 1 -5.216623071083822 12.841641172027815 -8.703732557739848 0 0 0
1401 1 -4.879817538645838 11.420353429316274 -10.819620597479588 0 0 0
1402 1 -4.570172591713607 10.017768610551718 -12.80464379687665 0 0 0
1400 1 -3.776433326718845 12.381914778233556 -13.401234801596125 0 0 0
1243 1 -3.479254720819373 10.664390682682102 -8.900242060981327 0 0 0
1403 1 -3.1823971843077956 9.195584189107004 -10.859462343137615 0 0 0
1375 1 -6.494256790818774 13.774073415541986 -10.71314406770534 0 0 0
1261 1 -2.8537565100508537 12.979170063550066 -9.48013171767633 0 0 0
45 1 -8.025678963063779 10.842018142999988 -13.847857997350413 0 0 1
1399 1 -4.1512517067662245 13.717050005511004 -11.330047291564314 0 0 0
1245 1 -1.7891034540193225 8.488295015349637 -9.043980109607956 0 0 0
1262 1 -2.3163228938537586 11.42138829626826 -11.451991044441769 0 0 0
1263 1 -1.0152704431193875 10.695868476172118 -9.57536276261796 0 0 0
1264 1 -0.7054399052924403 9.460460283773019 -11.63662590501566 0 0 0
1140 1 -0.34251920842830863 13.210849345358922 -10.162450058931137 0 0 0
1280 1 -0.003351934089774744 11.709315237459942 -12.329114059183501 0 0 0
1265 1 0.5888174259871697 8.486484376954609 -9.853741201529193 0 0 0
1142 1 1.3247956685172806 10.890917147746622 -10.404564856550067 0 0 0
1281 1 1.6656814015539219 9.434543582837671 -12.426565697387094 0 0 0
1154 1 1.926895892661344 13.164988296460722 -11.09605524052204 0 0 0
53 1 -2.07769445613326 10.154372073832496 -13.55233754777943 0 0 1
1155 1 2.4853044074799513 11.592397002244441 -13.085473111929925 0 0 0
1141 1 1.0275954320045155 12.337153561304989 -8.349048828632416 0 0 0
1143 1 2.70987710379163 10.045454278093418 -8.529706431698251 0 0 0
1144 1 3.1731091755354193 8.762807344023225 -10.561329701715351 0 0 0
1156 1 3.6773368995043576 11.097382966711384 -11.144432449860345 0 0 0
1051 1 3.3912514780700214 12.455586868766959 -9.056897092593031 0 0 0
1053 1 5.142404619775803 10.096373817449246 -9.262707257395546 0 0 0
1061 1 5.769462244588414 12.473977932167733 -9.81749636420146 0 0 0
1158 1 5.494321227442985 8.752552775443393 -11.362874957638361 0 0 0
1062 1 6.119256341629267 11.09623396517914 -11.896310501216558 0 0 0
63 1 4.219390733293778 9.609783833067079 -13.191961298391718 0 0 1
1060 1 4.392818803962868 13.445932773380848 -11.684789725087564 0 0 0
1069 1 6.781522397372356 13.50356531968387 -12.412608865406316 0 0 0
1063 1 7.465194641976616 10.259148222672364 -10.058111657092905 0 0 0
995 1 8.149193737552 12.675106937948657 -10.57235996764765 0 0 0
1064 1 7.899881782492223 8.889916689767285 -12.041707492217101 0 0 0
1157 1 4.773821535158728 11.956555384945409 -13.831078810674107 0 0 0
1070 1 8.490922375728772 11.23009923232195 -12.607870219966122 0 0 0
999 1 11.845865692334538 8.253098481638935 -11.058658800803563 0 0 0
1622 1 13.567513186864431 9.60496755356793 -9.6996037487267 -1 0 0
1003 1 12.969017103874311 12.948400750257465 -12.036177872248725 0 0 0
1620 1 12.340616980313982 10.570049440337963 -11.542107300743607 -1 0 0
1001 1 11.96343316665746 11.821325678602362 -9.4408000280276 0 0 0
998 1 11.273502678832909 9.579782413963583 -8.863390758684465 0 0 0
997 1 9.964099477215456 10.345461513788047 -10.791070394538506 0 0 0
996 1 9.589437793640741 11.81478928817434 -8.703003904008513 0 0 0
1000 1 10.59425284591494 12.767310096132176 -11.416265564959428 0 0 0
1071 1 10.248974477384419 8.862532974437153 -12.704656920413804 0 0 0
1002 1 10.89440446064614 11.295301007776358 -13.244261461644609 0 0 0
1729 1 12.863318907384905 9.159601177065584 -13.628760138697068 -1 0 0
1540 1 9.15512924104712 13.569264020612371 -13.167483752359095 0 -1 0
216 1 11.565890284719849 13.74260992562031 -13.841532112561978 0 -1 1
1279 1 0.6580794797024421 14.009256342844326 -12.807232074578954 0 0 0
1260 1 -1.704405912615476 13.895022179949963 -12.031030383372782 0 0 0
41 1 2.9793072149090385 14.112122305800765 -13.441523542239736 0 0 1
994 1 7.814718487684797 14.049487687493047 -8.619365562335183 0 0 0
1829 1 -11.147777448440989 -11.031519740240574 -7.628886288112453 0 0 0
1860 1 -11.660515552747505 -13.517305251779343 -6.872172182714593 0 0 0
1823 1 -12.006345779678446 -11.937969807574758 -4.991626415997926 0 0 0
1828 1 -11.380001513697819 -9.549421480562463 -5.7237768263390745 0 0 0
1768 1 -9.99788864608231 -10.250590329994315 -3.713325528695341 0 0 0
1858 1 -13.459662410181293 -11.225749193752836 -6.828263473574997 0 0 0
1822 1 -12.382915154151858 -10.474779553944002 -2.9667970018142977 0 0 0
1821 1 -13.71674860456897 -9.77435239302315 -4.900376867174698 0 0 0
1762 1 -10.67128986834626 -12.707196330013911 -3.0960795956034293 0 0 0
1830 1 -9.655518246526604 -11.827660769921005 -5.805448249529675 0 0 0
1831 1 -9.270954275343547 -13.337168699791613 -7.788082514236257 0 0 0
1778 1 -9.039474841345122 -9.470576005513948 -6.337803375966704 0 0 0
1827 1 -12.894458859264644 -8.843890224810941 -7.601760327736488 0 0 0
1836 1 -10.395967978359197 -8.751146551768967 -8.250021568904497 0 0 0
1770 1 -8.172187567056676 -12.708636757197231 -3.994618421757906 0 0 0
1705 1 -4.326853976796441 -9.463689022790355 -7.825060641617276 0 0 0
1790 1 -6.609150245034539 -9.594043088876873 -7.0798793157703575 0 0 0
1690 1 -5.190945053584969 -10.07608161075432 -5.1928373662442855 0 0 0
1779 1 -7.554130998635502 -10.316866323211222 -4.564454999064726 0 0 0
1780 1 -7.297900221660729 -11.725661867539806 -6.490012545164425 0 0 0
1781 1 -5.838605658573002 -12.489761649898456 -4.70494194615584 0 0 0
1706 1 -4.933323299216957 -11.671860144937355 -7.194995772060497 0 0 0
1678 1 -4.446777483756586 -13.273335544181599 -2.830702044826692 0 0 0
1689 1 -5.487006393645414 -8.739003834286963 -3.102047797154013 0 0 0
1691 1 -3.79801289765493 -10.953304790483477 -3.4416749856606383 0 0 0
1692 1 -3.527236768192232 -12.465371036305394 -5.366938537515352 0 0 0
1808 1 -3.113181576880839 -13.898074260743385 -7.407690455488142 0 0 0
1792 1 -5.540595755694593 -14.109345501076776 -6.665241424466646 0 0 0
1593 1 -2.8700085772828547 -10.24538579883912 -6.158002154148325 0 0 0
1572 1 -3.0929035980883235 -8.693148982634334 -4.062959870916657 0 0 0
1351 1 -7.91317774691306 -14.057225488898863 -6.049006609736037 0 1 0
1709 1 -0.6682045886536709 -13.85920676953349 -8.144673450647351 0 0 0
1707 1 -2.448450750595061 -11.642691133425572 -7.969590710037889 0 0 0
1574 1 -1.3943099732104987 -10.925041344689578 -4.121378644281338 0 0 0
1693 1 -2.073039271818173 -13.217089950514248 -3.5571219248829244 0 0 0
1708 1 -0.9069476438210184 -12.549140711595957 -6.238835702688734 0 0 0
1615 1 -0.32141352604087103 -10.230624076041588 -6.805383587686573 0 0 0
1594 1 1.0680081305207558 -10.926526067446208 -4.936818287885984 0 0 0
1438 1 0.5144072601526624 -9.476982780456487 -2.8420497146055954 0 0 0
1576 1 0.3085181316075616 -13.233680237636234 -4.245333394094731 0 0 0
1595 1 1.364000534881864 -12.229239940597353 -6.972081534520776 0 0 0
1487 1 1.957352618444677 -9.98748290506444 -7.641590343140306 0 0 0
1440 1 2.4430239338020385 -11.613572154301039 -3.132550062263281 0 0 0
1596 1 2.734854654451233 -13.096684044445706 -5.117700010027447 0 0 0