LAMMPS data file via write_data, version 2 Aug 2023, timestep = 0, units = metal

1868 atoms
3 atom types

-14.19895164788776 14.19895164788776 xlo xhi
-14.17161562886992 14.17161562886992 ylo yhi
-13.5962772606182 13.5962772606182 zlo zhi

Masses

1 55.847
2 1.008
3 1.008

Atoms # atomic

1469 1 -12.43417672898686 -12.461992813483649 -11.38044920458264 0 0 0
1471 1 -10.231204715371458 -11.249218409896994 -11.17664051656112 0 0 0
1599 1 -11.292063934190487 -11.19546063875081 -9.058188648629855 0 0 0
1580 1 -12.639241232100353 -10.093366908581544 -10.91649938126123 0 0 0
1493 1 -9.131147702014324 -9.902736418882226 -8.68355547611306 0 0 0
1472 1 -11.329560342977485 -10.115930741778879 -13.12695558768853 0 0 0
1375 1 -11.100255202962256 -13.545215869570157 -9.57492465842332 0 0 0
1377 1 -8.879946976574285 -12.331831384770663 -9.207232558298978 0 0 0
1355 1 -9.127895305492956 -8.95952278457165 -12.781471362829484 0 0 0
3 1 -8.896966045468742 -11.339650961205708 -13.146343718048286 0 0 1
1492 1 -9.746441872828623 -13.55716203560677 -11.630594229683094 0 0 0
1494 1 -10.350873464867032 -8.77533179232134 -10.73808046433543 0 0 0
1642 1 -11.735937070801008 -8.79200740661457 -8.65962026710929 0 0 0
1581 1 -13.592102111519697 -11.40691528091251 -13.221310948038168 0 0 0
1857 1 -13.45683056891505 -12.25798027248971 -9.29184341567875 0 1 0
1684 1 -13.980195757946365 -9.023163143776188 -12.714504234092548 0 0 0
959 1 -13.91102319191562 -9.988087805208487 -8.775554658367414 1 0 0
1470 1 -11.111906627611656 -12.56860754388311 -13.409973360528143 0 0 0
1353 1 -7.914459878269555 -9.99499571387337 -10.808905162951145 0 0 0
1131 1 -7.514652271304224 -12.425667748161553 -11.334205410653464 0 0 0
1238 1 -5.273231394114363 -11.23453585930737 -10.989941618081932 0 0 0
1258 1 -6.343027262401888 -13.509601166500039 -9.453046245983458 0 0 0
1683 1 -5.095645125535436 -13.601050443033023 -11.523558232213796 0 1 0
1282 1 -4.062120126990953 -12.379364804194557 -9.137442107472317 0 0 0
1354 1 -6.589557009385657 -10.026252736943643 -12.928808727796666 0 0 0
1378 1 -6.66831664635258 -11.172529744076087 -8.933854320498249 0 0 0
1260 1 -4.402159620495816 -10.034238298757426 -8.78248498885256 0 0 0
1356 1 -4.40903752266291 -9.07656453092752 -12.448964686448562 0 0 0
23 1 -4.212526526281717 -11.382922402786981 -13.166868268652632 0 0 1
1380 1 -5.6759514715626285 -8.826184748032034 -10.545216469900966 0 0 0
1379 1 -6.9320975112261225 -8.798153263985235 -8.413934120439688 0 0 0
1236 1 -6.434131623474968 -12.327893490024596 -13.37655991856127 0 0 0
1259 1 -3.041951091224684 -10.223851817123641 -10.751712825227827 0 0 0
1132 1 -2.929452864992042 -12.598089039833408 -11.308471264097031 0 0 0
1152 1 -1.8221854121532868 -11.189306439631173 -8.86453534909882 0 0 0
1047 1 -0.3452970935650779 -13.7550519382876 -11.52139625971509 0 0 0
1061 1 0.7163674662458721 -12.56007413319061 -9.286624421091476 0 0 0
1154 1 -0.6349655743145473 -11.345703641373603 -11.005139560192234 0 0 0
1048 1 1.9549063556483972 -12.373345946164589 -11.432983918667325 0 0 0
1239 1 -1.9407938781840581 -10.373239340123103 -12.839690592952632 0 0 0
1155 1 0.30623234598874305 -10.01646912552436 -8.60582226122147 0 0 0
1156 1 1.4969157127057322 -10.161793960794336 -10.698685056305745 0 0 0
1174 1 -1.6626295294352982 -13.57581180055546 -9.413204404703649 0 0 0
1134 1 0.2198552090917989 -9.004953436798028 -12.489321845822637 0 0 0
25 1 0.5975120125676909 -11.513317625987517 -13.092536646750268 0 0 1
1261 1 -0.9389818349574117 -8.86330057114655 -10.456829824596795 0 0 0
1262 1 -2.2209977136259056 -8.798126829436129 -8.45828655168578 0 0 0
22 1 -1.672092629435749 -12.67711342369675 -13.493695434891048 0 0 1
1178 1 2.541660145836964 -8.77920237685753 -8.436904677755788 0 0 0
1079 1 2.8849472692872595 -11.149028220654326 -8.910340833708283 0 0 0
77 1 2.7402112597518666 -10.241156970909959 -12.908668972919685 0 0 1
998 1 3.1062983721673767 -13.457674834638183 -9.472708879564355 0 0 0
1063 1 4.049088569475487 -11.225268840023558 -11.156399248585942 0 0 0
999 1 6.517180114260142 -12.36013301051027 -11.349894819078864 0 0 0
1064 1 6.228803844406119 -9.976210915278145 -10.691367174651331 0 0 0
956 1 5.335359073209542 -12.244239678715902 -9.258839795749571 0 0 0
1081 1 5.055769061441094 -9.856621347107062 -8.697784985064086 0 0 0
958 1 7.742872014386265 -11.104852896259866 -9.053363781188217 0 0 0
952 1 7.431813081702174 -10.23573263944842 -12.81667470018844 0 0 0
1512 1 7.93587216140067 -13.565609513509989 -9.485842649085306 0 1 0
990 1 4.917200775680492 -8.974804454436406 -12.763665121846895 0 0 0
1049 1 3.7576423572219397 -8.928958179421976 -10.586268339875202 0 0 0
76 1 5.188957961654289 -11.336093456458544 -13.239886998085963 0 0 1
951 1 4.3155607704509364 -13.567042765758602 -11.617794040640545 0 0 0
989 1 3.1278355827258544 -12.805098810933844 -13.559319283825106 0 0 0
81 1 7.840744680321404 -12.602049396535406 -13.306234783829064 0 0 1
1000 1 7.31056552964451 -8.805965971163138 -8.672798785165714 0 0 0
1001 1 8.60832341826928 -8.998702763809812 -10.661527693853827 0 0 0
957 1 8.866478255093224 -11.23609810226627 -11.09462362982046 0 0 0
1398 1 10.195188834024961 -12.329454559454476 -9.311067609610781 0 1 0
935 1 11.323604151824302 -12.332215406472768 -11.369801259858619 0 0 0
960 1 9.789690215585033 -9.926419365954214 -8.747762772613196 0 0 0
1374 1 12.371001136026766 -11.145192670224013 -9.03023256147977 0 1 0
961 1 10.982127273930477 -10.016502656709111 -10.86945981887594 0 0 0
1151 1 12.775397506584678 -13.618941353345154 -9.701253076706921 0 1 0
1579 1 12.35003856668742 -10.195822833259365 -13.107020350958138 -1 0 0
953 1 9.729554641752202 -8.98621802383494 -12.765157292399278 0 0 0
939 1 13.519556471948793 -11.255315664601644 -11.18105093182616 0 0 0
963 1 13.225167820450473 -8.82355918115915 -10.526485874281038 0 0 0
172 1 10.171766380874313 -11.380409441018529 -13.229898778642262 0 0 1
1350 1 9.05127917675782 -13.661766603402903 -11.59476421221682 0 1 0
178 1 12.599112865872382 -12.651010744553666 -13.50298477835472 0 0 1
962 1 11.904502969245552 -8.811589680909982 -8.523030717655217 0 0 0
1854 1 13.832586838976411 -13.706170887845502 -11.74022025933701 -1 1 0
1601 1 -10.774991124149308 -6.477128356820002 -9.976311676964581 0 0 0
1582 1 -12.096010339522197 -5.4367239700219265 -11.900726432425172 0 0 0
1700 1 -11.610881963766136 -7.819543283542616 -12.618898266712614 0 0 0
1584 1 -9.734632992765757 -4.224114105283974 -11.765896645018966 0 0 0
1701 1 -11.23082944733019 -4.075218050802292 -9.713934487975685 0 0 0
971 1 -13.431552620116818 -5.281897545220156 -9.952671658254928 1 0 0
1473 1 -9.515649186322007 -6.661582112561119 -12.246554744895064 0 0 0
1600 1 -13.099504341175265 -7.721345918664151 -10.416305905004949 0 0 0
1622 1 -9.524861744045332 -7.5046895371654 -8.239273784129672 0 0 0
27 1 -11.031353863345174 -3.1175466835994587 -13.552812259106028 0 0 1
1702 1 -12.372270040476872 -2.9581378459591168 -11.475276833304584 0 0 0
964 1 14.108463504758355 -6.68635611002093 -12.147374501392214 0 0 0
1605 1 -8.985629385553981 -2.959004288213656 -9.372200131700641 0 0 0
1019 1 -13.60297638793347 -2.860376563181207 -9.279746841509517 1 0 0
1603 1 -8.594610522620844 -5.242971685209032 -9.918326398025705 0 0 0
1495 1 -8.285181712978769 -7.622926834954122 -10.403482287227119 0 0 0
1357 1 -3.4523892134492655 -7.729198473514949 -10.45575202822251 0 0 0
1474 1 -6.964763204305724 -7.772387650043517 -12.469883851087765 0 0 0
1475 1 -7.342077305777497 -5.410454763198956 -11.962189589337612 0 0 0
1496 1 -6.000202596146533 -6.456408990316648 -10.108846077938129 0 0 0
1358 1 -4.830214739951499 -6.5491648209023055 -12.226283182539223 0 0 0
1382 1 -3.854964285772578 -5.3527557695711625 -9.761811671679649 0 0 0
1497 1 -6.287851087496064 -4.204428569521406 -9.4620239430229 0 0 0
1359 1 -5.223475546010718 -4.214557059652114 -11.699188946333912 0 0 0
1476 1 -6.402670932584864 -3.0712543222468334 -13.501060526730281 0 0 0
1403 1 -4.694101781464978 -7.663125055247182 -8.225250361251959 0 0 0
1477 1 -7.538284853856135 -2.9917627222465537 -11.324768652423911 0 0 0
109 1 -3.869447075865722 -4.328931871638268 13.517349588425896 0 0 0
1360 1 -2.610229069568515 -5.471451413400077 -11.904599223614008 0 0 0
1264 1 -1.623021560997847 -4.239539331111683 -9.529072712986384 0 0 0
1240 1 -1.3393469839825123 -6.553780308052469 -9.98132753478519 0 0 0
1133 1 1.2311380265907932 -7.767003749818714 -10.384689822258794 0 0 0
1241 1 -2.2552769143472275 -7.8752627404652555 -12.368930390711228 0 0 0
1242 1 0.7440126127423916 -5.253117756731589 -9.799800983446712 0 0 0
1243 1 -0.16032556157114008 -6.634217464301076 -12.083503194463646 0 0 0
1244 1 -0.38226771291925665 -4.264957491566367 -11.588513853791522 0 0 0
1158 1 2.1122617095354137 -5.424473175122092 -11.78465331400773 0 0 0
1136 1 2.459174882815752 -7.739115199482658 -12.401064754759936 0 0 0
1361 1 -2.9170812643904185 -3.0735194437015902 -11.270664385153138 0 0 0
1137 1 1.911925615304753 -2.962244039337344 -11.323442281159728 0 0 0
1263 1 -0.04139304590258597 -7.654938516129262 -8.266905589817089 0 0 0
225 1 -1.6332233748402594 -3.1034391786573146 -13.330531594295143 0 0 1
1265 1 3.114117516202107 -4.069884300490511 -9.532043061530688 0 0 0
1135 1 3.3872523644587105 -6.44904118175866 -9.986861771004781 0 0 0
1159 1 5.591945649718809 -5.354737253117509 -9.681841972142632 0 0 0
1066 1 5.980904482818893 -7.63028950683672 -10.318456965190453 0 0 0
1050 1 4.712753418982185 -6.51917234734415 -12.107210297112942 0 0 0
1051 1 6.884452377595338 -5.513106914381167 -11.945186540137465 0 0 0
991 1 7.202082741748761 -7.799450311219719 -12.421593994788536 0 0 0
1138 1 4.383945262434132 -4.190032581863534 -11.666225595467594 0 0 0
1160 1 7.850094902684027 -4.102558305924228 -9.601808641147187 0 0 0
1065 1 4.738926633832371 -7.573361205810863 -8.191545257107276 0 0 0
1068 1 8.211470142067213 -6.494300799069477 -10.211516297923938 0 0 0
1054 1 6.540660759804229 -3.0775261995167895 -11.409922822473236 0 0 0
1053 1 7.81716679006156 -3.177036837055141 -13.5508445100502 0 0 0
1267 1 5.246349538637993 -2.841887164410874 -9.274699103765133 0 0 0
1070 1 10.336728359885413 -5.345435638844689 -9.803360573044777 0 0 0
954 1 11.949643363906333 -7.856405586089587 -12.318489377584786 0 0 0
992 1 9.439328251117075 -6.645516303016079 -12.111545033976373 0 0 0
1003 1 10.721600057873822 -7.619851998544814 -10.279173557568841 0 0 0
955 1 11.492551937259726 -5.370975766461585 -11.984713113616838 0 0 0
1006 1 12.395773311116102 -4.116823002650504 -9.667621657108704 0 0 0
993 1 9.048395252700999 -4.243787069943149 -11.81442157068481 0 0 0
1005 1 12.90741100793014 -6.392180558124646 -10.043493491896863 0 0 0
1002 1 9.326988464713299 -7.504666324570578 -8.25172615902479 0 0 0
994 1 12.4906451445299 -2.9629988724165344 -13.459345605692457 0 0 0
1685 1 13.751765986451097 -4.086884602346389 -11.67785163260836 -1 0 0
1620 1 14.195175782368501 -7.6210407949681045 -8.311297911466202 -1 0 0
1687 1 -12.653400458887388 -0.4547937076586148 -10.851720496576238 0 0 0
1704 1 -11.56458022216073 -1.760593152456897 -8.955031944493754 0 0 0
1688 1 -13.156756009950803 1.8772717659479934 -10.239436084337243 0 0 0
1573 1 -11.522823067625328 -0.7808491340804995 -13.061260803403487 0 0 0
1586 1 -10.220861767275327 -1.799349088435397 -11.185643806425137 0 0 0
1689 1 -11.742299693265238 1.5622076567410268 -12.416080336294304 0 0 0
1690 1 -10.546380651382623 0.6250001155265217 -10.475701860026158 0 0 0
1574 1 -9.203103208444592 0.4033789550726876 -12.758674402730076 0 0 0
1706 1 -9.318817938002189 -0.6844120708658075 -8.82696925712801 0 0 0
1585 1 -8.979551793013554 -1.8370685460997276 -13.298661720100691 0 0 0
1776 1 -11.910584012522474 0.6519838488773981 -8.47005509734793 0 0 0
1677 1 -13.69620877963689 -1.946401219294092 -13.36075744225703 0 0 0
1678 1 -14.026047989380366 0.37422848998102864 -12.59956276500275 0 0 0
1008 1 -13.921394817302692 -0.4540575313160762 -8.6676252900372 1 0 0
1705 1 -9.667908416857443 1.7445028503642313 -8.31980716201765 0 0 0
1498 1 -4.2645918410720185 -2.991773636829725 -9.214316972638798 0 0 0
1588 1 -8.40542421064966 1.7292446669382908 -10.404587077631668 0 0 0
1607 1 -7.989712669356082 -0.7157053944734226 -10.888470902239854 0 0 0
1479 1 -5.384460418855319 -1.804894373606789 -11.095310308702715 0 0 0
1480 1 -4.381253500039433 0.47250983622102005 -12.595879057989515 0 0 0
1501 1 -5.720105736984106 0.5397965620825502 -10.644937380734271 0 0 0
1499 1 -6.702808690652608 -1.8382626320943274 -9.043456463209903 0 0 0
1522 1 -4.6060350281918065 -0.5383599445167668 -8.776051476207403 0 0 0
1587 1 -6.644419229188684 -0.6982960717005913 -12.888205823023187 0 0 0
1589 1 -7.112662740960662 1.6241265497565376 -12.394658206724152 0 0 0
1481 1 -3.6519594025192657 1.7282769445213457 -10.284223537749149 0 0 0
1608 1 -7.203957144854004 0.6675587408080101 -8.532796502466764 0 0 0
1502 1 -3.1507486537035785 -0.6919630914604227 -10.90142778503598 0 0 0
1478 1 -4.1730163255957216 -2.011098814199041 -13.031132360556066 0 0 0
1630 1 -4.9400417380202 1.8012822097173995 -8.253828911513786 0 0 0
1384 1 0.47872258270285606 -2.8984836622288235 -9.29429735886222 0 0 0
1524 1 -2.414713931444723 0.5676567979181435 -8.525405496491427 0 0 0
1500 1 -2.114403427507522 -1.8005700784132799 -8.9633336011418 0 0 0
1385 1 0.01763754152723429 -0.6167500814854048 -8.779211635914205 0 0 0
1362 1 -1.9332261501583226 -0.8050443949461901 -12.884974182216789 0 0 0
1386 1 -0.6990011412602204 -1.7995153671413782 -11.093588591684895 0 0 0
1363 1 -1.064204624838247 0.5769931718857428 -10.614340451694519 0 0 0
1364 1 0.3392156045409713 0.4357754688272486 -12.724117646037564 0 0 0
1482 1 -2.374189145480072 1.663795825880383 -12.48112520746244 0 0 0
1246 1 1.4887562165864043 -0.6762343729621225 -10.889417068605955 0 0 0
1365 1 0.9884232668902264 1.6516466384708455 -10.265602932919098 0 0 0
1245 1 0.7150010932595006 -1.8881882819062064 -13.256180549651555 0 0 0
1387 1 -0.2947766691252234 1.6694877504090417 -8.168970745704243 0 0 0
1409 1 2.364128501405137 0.5726536129321893 -8.415152960361093 0 0 0
1366 1 2.4563729223225046 1.603843740969893 -12.38804404161698 0 0 0
1266 1 2.689083624366539 -1.61070109913571 -8.985119831845033 0 0 0
1247 1 2.7901637240266055 -0.7248428690938837 -12.908832898443023 0 0 0
1268 1 4.84961251982736 -0.5247266724270307 -8.796778443797248 0 0 0
1162 1 7.430285282974879 -1.6925324329996503 -8.97907295972395 0 0 0
1052 1 5.374737869245003 -1.9427193201523583 -13.209985963401502 0 0 0
1139 1 4.091712002525757 -1.7975157337814558 -11.21367549645403 0 0 0
1141 1 6.303035140508026 -0.5674700056366646 -10.832295300739096 0 0 0
1142 1 7.258634099236563 1.7566351997517327 -12.378738161833658 0 0 0
1248 1 3.7378502228703425 0.5642683375488904 -10.573466827419882 0 0 0
1140 1 4.909698660168651 0.4869766310713395 -12.740540223053486 0 0 0
1143 1 5.829230809126663 1.8613453774930573 -10.327674932629375 0 0 0
380 1 7.512743299076458 -0.6668921971436088 -12.871300721513954 0 0 1
1269 1 7.0280781194218775 0.6560714703791888 -8.461007274403716 0 0 0
1388 1 4.533528474638022 1.6955140336243417 -8.183031206309062 0 0 0
1007 1 11.284801827903504 -2.990128158924689 -11.42549307796403 0 0 0
1071 1 9.947201105796712 -2.9474671870623492 -9.258090652230536 0 0 0
1056 1 8.36692585028894 0.5553757949606091 -10.588173374000744 0 0 0
1072 1 8.788733600413185 -2.0062728948625725 -11.107561783004819 0 0 0
1164 1 9.680553101354615 -0.6421374371589792 -8.775104121301162 0 0 0
996 1 12.288478613931435 -0.7347747093503401 -13.046235104028622 0 0 0
995 1 11.007109017724101 -0.5969707805205164 -10.81581069828067 0 0 0
1055 1 9.785302836187686 0.5718287789161351 -12.68703631005034 0 0 0
1057 1 11.85985275933005 1.7024007443736124 -12.49832355044412 0 0 0
379 1 10.150210516382863 -1.9066779666986378 -13.317671332872372 0 0 1
1089 1 12.170002737105996 -1.8013389860000046 -8.974698520820935 0 0 0
1074 1 10.557075010062817 1.722167551731971 -10.403023576292414 0 0 0
1765 1 13.17129614014532 0.5750588006064152 -10.582497235466231 -1 0 0
1686 1 13.61719788195072 -1.7735136948520651 -11.0766048392735 -1 0 0
1073 1 11.745115698112379 0.591161545705507 -8.49777546325413 0 0 0
1271 1 9.340324382174291 1.8157443046600612 -8.190981856454272 0 0 0
1009 1 13.881329904555752 1.7190075056811143 -8.135792631548503 0 0 0
1691 1 -9.59529036611188 2.789750023266736 -12.136978903710721 0 0 0
1766 1 -10.932618977757652 3.025373173876188 -10.13235704958404 0 0 0
1767 1 -12.176897811341181 4.0175946002142435 -11.89662270353784 0 0 0
1768 1 -13.464023054693238 4.297382792695847 -9.730673620906497 0 0 0
1770 1 -12.4645253711203 6.510841956885864 -11.344794300319625 0 0 0
1780 1 -11.14248302118048 5.397104144282933 -9.577448042767175 0 0 0
1692 1 -9.926770080834181 5.157048490043701 -11.591645854833228 0 0 0
1772 1 -10.22004343948311 7.683539128431919 -11.121502670400108 0 0 0
1709 1 -9.010020931589484 6.59330750740998 -9.309680243203394 0 0 0
1771 1 -8.785650573156495 7.5816980579779685 -13.135146883112284 0 0 0
1827 1 -13.77837099419246 6.595797321452521 -9.23043275299308 0 0 0
1820 1 -13.728644821481712 7.511113605783686 -13.159941693780805 0 0 0
1781 1 -11.541551662863434 7.776148389740085 -8.984590633519023 0 0 0
1707 1 -8.673030256182539 4.077371442290177 -9.762642995235824 0 0 0
1769 1 -11.055291320927253 6.372024359883513 -13.354139891586714 0 0 0
1463 1 -4.819810883819859 2.8862219473492363 -12.082623365289429 0 0 0
1609 1 -6.227328105123456 2.8893196256182225 -10.053953565540114 0 0 0
1590 1 -5.176309548033769 5.236422448919212 -11.639403609189321 0 0 0
1693 1 -7.644432945230812 6.5559059816591 -11.323876167701357 0 0 0
1708 1 -7.430224880172856 4.023305756382518 -11.847977723061556 0 0 0
1611 1 -4.0331996297519535 4.051880809426843 -9.753563697333407 0 0 0
1710 1 -6.483362407263916 5.294499481802914 -9.53958485245346 0 0 0
1613 1 -4.420967358639363 6.445689797437664 -9.175181268120491 0 0 0
1695 1 -5.494892994614959 7.669613757831664 -11.085283787432715 0 0 0
450 1 -4.159772810314244 7.473320120671394 -13.181632288801866 0 0 1
1782 1 -6.823140387870961 7.756826546102539 -8.947634347926028 0 0 0
1576 1 -6.368574806471954 6.373828284935824 -13.511193197982156 0 0 0
1591 1 -2.964362670681563 6.335989531380134 -11.42313907653097 0 0 0
1778 1 -7.430279748910422 2.8971212355538203 -7.845331295943249 0 0 0
1575 1 -8.616279360148065 5.208469166659404 13.463684852422984 0 0 -1
1483 1 -2.6876355008080015 4.009144786334842 -11.960905662862983 0 0 0
1484 1 -0.1726128926855175 2.7845147078518995 -12.201392789912445 0 0 0
1504 1 -1.422272587894394 2.9111680942621465 -10.035222042781694 0 0 0
1506 1 -1.8250272104114487 5.1681393987205215 -9.481025275643415 0 0 0
1367 1 0.8359071375340914 3.962914117213936 -9.80875322906249 0 0 0
1508 1 0.3816231349500878 6.35198291351743 -9.182343153134237 0 0 0
1486 1 -0.5021645757550957 5.063452902475751 -11.647021348164584 0 0 0
1369 1 1.695810600081284 6.330044555985344 -11.352777404957125 0 0 0
1368 1 2.074320292053681 4.016086430806032 -11.908469069434666 0 0 0
1485 1 -0.87530118795015 7.624890235146877 -10.945373309544872 0 0 0
1347 1 0.4584149814297227 7.464458541092439 -13.068814385229876 0 0 0
1615 1 -2.1805491103402446 7.487363817435158 -8.842473354746474 0 0 0
1465 1 -1.6876602116596011 6.370582927471466 -13.492450063024435 0 0 0
1503 1 -2.753969377474032 2.9639780686912456 -7.971897306112156 0 0 0
1393 1 2.484247681819081 7.644790402757279 -9.019167760871536 0 0 0
1249 1 4.6455503212432205 2.872343052364622 -12.170926987490512 0 0 0
1390 1 3.3953394633318617 2.8965875180563447 -10.101310494225501 0 0 0
1392 1 3.0568737908357804 5.2848349984972085 -9.485413071280497 0 0 0
1250 1 5.617247748445603 4.2062964710952695 -9.723375485811768 0 0 0
1251 1 6.88116541411479 4.036322255539728 -11.881852784385707 0 0 0
1252 1 4.39135386066604 5.168069940053835 -11.537431490582502 0 0 0
1274 1 5.149581622722106 6.4536821271648055 -9.200499326917551 0 0 0
1253 1 6.523716967680162 6.375338107371176 -11.202258768925379 0 0 0
1273 1 7.76219588259811 5.318383831987431 -9.443944704338136 0 0 0
1394 1 3.921071498467043 7.5737390205355 -11.072113598392365 0 0 0
1276 1 7.344699287802623 7.644867970733928 -8.8741650166767 0 0 0
1370 1 5.270500553166777 7.430706542917273 -13.187724809110293 0 0 0
614 1 7.799266611209205 6.299957367225117 -13.310685475108198 0 0 1
1166 1 8.10188501546649 2.979825459320809 -10.05303032860039 0 0 0
602 1 2.950874328417971 6.270239200778848 -13.393715905096567 0 0 1
1144 1 9.422712056180536 2.9468628942798407 -12.14235080776422 0 0 0
1076 1 12.698543778258713 2.9740797561949233 -9.997212377560697 0 0 0
1147 1 8.688926237298023 7.611083652143973 -11.01384049026456 0 0 0
1275 1 9.869846503597778 6.497332774582505 -9.16003197952278 0 0 0
1058 1 11.473760390858263 4.199376739167702 -11.989500528516176 0 0 0
1059 1 11.103001852519341 6.4161378072044055 -11.277533511849542 0 0 0
1145 1 8.99366935384296 5.299876916888971 -11.448644804675641 0 0 0
1168 1 10.215817387441511 4.176480285626665 -9.826395156987436 0 0 0
1077 1 12.529253065838788 5.376453820568779 -9.49508258633513 0 0 0
749 1 9.898011697928162 7.633879795240995 -13.208731782134292 0 0 1
1060 1 13.329360307916428 7.692339387196695 -11.023660598575074 0 0 0
1169 1 12.192046483699645 7.7907319274660605 -8.91720746720565 0 0 0
1148 1 12.499494742117125 6.391053531033878 -13.366451299832859 0 0 0
761 1 13.728377665465459 5.31276521786649 -11.668124380132255 0 0 1
1760 1 14.019184534569202 2.869798156704112 -12.121606784798344 -1 0 0
1821 1 -12.837451443624559 8.860337310341494 -10.786581961507808 0 0 0
1824 1 -13.033399702147623 11.34653572069025 -10.245121393379973 0 0 0
1819 1 -11.747079169243186 11.160126216641332 -12.404569417301534 0 0 0
1825 1 -10.834966871420201 12.490835932265176 -10.190077446105455 0 0 0
1764 1 -9.497720362070515 12.359662607918716 -12.177823429876653 0 0 0
1831 1 -10.64055747959007 10.01392920143619 -10.493979326488414 0 0 0
1829 1 -11.800835143820077 10.223250305299464 -8.427034149729042 0 0 0
1793 1 -9.385169806563852 8.989242489137192 -8.683714270929066 0 0 0
1763 1 -9.18997262629457 9.964346987731082 -12.60131507594699 0 0 0
1822 1 -11.413113779135518 8.861766394265375 -12.855506503226568 0 0 0
1858 1 -13.393262933542408 13.597766310817624 -9.904485570227969 0 0 0
1351 1 -11.97168125323735 13.58334888447296 -11.941277484513641 0 -1 0
1832 1 -9.683346566024902 11.370285240217724 -8.25069191685086 0 0 0
1818 1 -14.016764653720188 9.934153726433754 -12.681173150066803 0 0 0
1192 1 -13.993354257884954 8.969544731466298 -8.611743555743066 1 0 0
1376 1 -8.468328146956829 13.611588193833287 -9.683387027430483 0 -1 0
1774 1 -8.430769036017416 11.134599887427887 -10.209061951776965 0 0 0
1694 1 -8.001040839875003 8.865755190282835 -10.885655082730729 0 0 0
1592 1 -4.740744831192989 8.773926926013859 -8.683859886049284 0 0 0
1681 1 -6.668784337452254 8.73981634637987 -13.025367340386584 0 0 0
1682 1 -4.822657096213106 12.302255258055679 -12.17849582564768 0 0 0
1696 1 -5.874674620853586 10.03662338011509 -10.591441484764259 0 0 0
1773 1 -7.1379211116757215 11.18032523849117 -12.460484109431405 0 0 0
1577 1 -4.528515388025516 9.92892394074743 -12.698046157299185 0 0 0
1786 1 -6.0896895821905535 12.445099428532158 -10.140447609113892 0 0 0
1784 1 -6.983953370629412 10.078904507140917 -8.401564436600559 0 0 0
1697 1 -3.7301740541146255 11.190146058344991 -10.249104855268552 0 0 0
1593 1 -3.2207981306827946 8.628728263974507 -10.827538243408155 0 0 0
1775 1 -7.415489377887357 13.53874859968973 -11.938116297205566 0 0 0
1698 1 -3.846855841117222 13.664369306342364 -9.807640171558532 0 0 0
1712 1 -4.893255216322963 11.187938902777928 -8.25273202181566 0 0 0
1699 1 -2.559758264688883 13.45570695301374 -11.926416331422413 0 0 0
1594 1 -2.5050838941503866 10.002082384100612 -8.473265351980686 0 0 0
1595 1 -2.11057400596294 8.638087630333617 -12.913858729198752 0 0 0
1596 1 -1.1422091154332392 10.020368673658927 -10.505879567724765 0 0 0
1466 1 0.007595645668427409 9.89512785950681 -12.700418519798745 0 0 0
1487 1 1.470112074942442 8.809600664589796 -10.859229234146675 0 0 0
1597 1 -0.21544915839342593 12.207181125359094 -12.000992525222333 0 0 0
1617 1 1.0806285234105868 11.170820718842451 -10.203218707405068 0 0 0
1716 1 -1.3870452840379528 12.356863860478237 -9.914646109960803 0 0 0
1509 1 -0.04779226942040182 8.735634548411022 -8.745828458767651 0 0 0
1578 1 -2.411464688131421 11.044421782938281 -12.33549683231562 0 0 0
1532 1 2.083835000389673 9.84174394929484 -8.319541756111152 0 0 0
1062 1 2.0219157118936764 13.365860027525892 -11.8684085821355 0 -1 0
1488 1 2.4130815540111037 10.99876180486205 -12.273811929008733 0 0 0
1598 1 0.8036462813467455 13.431049471778762 -9.797728494523664 0 0 0
1616 1 -0.29537764751353457 11.231477800032602 -8.088769400360455 0 0 0
1348 1 2.711292258416364 8.754352420317145 -12.934547499129742 0 0 0
1234 1 7.492142296716565 8.747842714551721 -12.88745450312147 0 0 0
1510 1 3.3993500051631855 12.480870311962809 -10.13605707476859 0 0 0
1349 1 4.984205228469936 9.903383652962278 -12.666187317719194 0 0 0
1371 1 5.804623379965083 11.199212935912792 -10.114140755881929 0 0 0
1490 1 4.68968377232132 12.274651795307756 -12.03275318012319 0 0 0
1254 1 6.265211305139562 8.819181201066707 -10.854996214443064 0 0 0
1395 1 3.6356535333760895 10.003126490879202 -10.575480280777674 0 0 0
1372 1 7.145799565608549 10.973995040372964 -12.195435816322128 0 0 0
1417 1 4.641945586554247 8.829190535416823 -8.718489186066268 0 0 0
1419 1 7.024150203485789 9.945184552430314 -8.363157431046691 0 0 0
1373 1 6.7395463614983555 13.465977522058465 -11.80667863005974 0 0 0
1511 1 4.442173670240578 11.37907179301172 -8.23527512962404 0 0 0
1396 1 7.94131156222468 12.481132094398037 -9.996088283576253 0 0 0
1489 1 5.536704603357332 13.625407221105776 -9.76761760011214 0 0 0
1277 1 8.43887537355118 9.943532686670045 -10.495815375733445 0 0 0
1861 1 12.876876438262208 12.30628972292728 -9.996295771586992 -1 0 0
1170 1 10.85777458988182 8.878855954687312 -10.793943660995437 0 0 0
1150 1 12.201022231317776 8.691584235915707 -12.894512900155366 0 0 0
1853 1 11.826844138726397 11.054445711223552 -12.295292593558344 -1 0 0
1149 1 10.56899649392809 11.110922631483769 -10.233820056745884 0 0 0
1255 1 9.597313306313684 9.959820692059681 -12.76940172153007 0 0 0
1256 1 9.239908971937954 12.242383136474922 -12.060145897108573 0 0 0
1300 1 9.592558833910726 8.886524463068097 -8.675683003364393 0 0 0
1172 1 13.104691782987583 10.055002984072361 -10.39556619338576 0 0 0
1171 1 11.7814444059212 10.056075846296922 -8.309001234759894 0 0 0
1257 1 11.677502959267816 13.341369620350774 -11.930023610987243 0 0 0
1278 1 9.324219654077197 11.326769255951545 -8.1473404618738 0 0 0
1279 1 10.494932669158608 13.547525215355831 -9.919534400115516 0 0 0
1856 1 14.166568560686695 12.304813395830996 -12.09875817292909 -1 0 0
1823 1 14.041261015010928 11.250655053731185 -7.999899470082512 -1 0 0
1491 1 -12.383886589787474 -13.496177683752348 -7.475181841443911 0 0 0
1514 1 -10.138838901139039 -12.302535369459589 -7.184938063058014 0 0 0
1513 1 -10.421620718730043 -9.811496835731294 -6.762044590360195 0 0 0
1537 1 -11.431512971881286 -12.038841849220358 -5.222682706535538 0 0 0
1641 1 -13.585233622350932 -13.247842454736677 -5.294523074858251 0 0 0
1535 1 -10.400386817286975 -13.419880840158454 -3.3200177241992286 0 0 0
942 1 -12.64680511302341 -10.983434084665992 -7.0414048824494495 1 0 0
941 1 -13.896970397440857 -10.811160842405119 -4.936902156596695 1 0 0
1536 1 -8.943416002635058 -13.441585915660498 -5.296307864404984 0 0 0
1663 1 -12.710041685456922 -12.069141989646251 -2.944087403017633 0 0 0
1643 1 -11.783078479511541 -9.707365989423714 -4.640282104077027 0 0 0
1400 1 -9.39821668735735 -10.883522860523499 -4.848484947689906 0 0 0
1560 1 -10.647057997525804 -10.850441611266143 -2.692817473034193 0 0 0
940 1 -12.985751454941692 -8.608235600817935 -6.496234336654908 1 0 0
1423 1 -8.315762739338194 -12.219635943701396 -2.97828373122225 0 0 0
1516 1 -7.894939248549362 -11.124525309003062 -6.841844610214889 0 0 0
1401 1 -5.6324688945218 -9.989575226583842 -6.575904211990474 0 0 0
1422 1 -6.755747286196883 -12.215490806650573 -4.9317079529593215 0 0 0
1424 1 -4.572711581803093 -11.096957383827242 -4.766560082263611 0 0 0
1305 1 -5.411479724112299 -12.32161293662965 -7.080374345139606 0 0 0
1281 1 -7.703500552836738 -13.380464823500958 -7.355563767762873 0 0 0
1797 1 -4.460370971690477 -13.480363629764382 -5.228890064315921 0 1 0
1798 1 -3.7847793564139636 -12.376446766643173 -2.947833149031254 0 1 0
1840 1 -5.764611281629431 -13.317878132643585 -3.130424108414168 0 1 0
1425 1 -7.1292446707887365 -9.852789425162824 -4.564986108232711 0 0 0
1447 1 -6.082006399448957 -11.049820157377766 -2.716134937928448 0 0 0
1285 1 -3.6419388002570745 -8.5223998519345 -6.378517192665703 0 0 0
1283 1 -3.22623052397474 -11.06934511097843 -7.054979775204578 0 0 0
1426 1 -4.939729393915032 -8.635688658750265 -4.383771129020513 0 0 0
1515 1 -8.17193660464892 -8.652376723445844 -6.302801323073086 0 0 0
1561 1 -8.538709546587956 -9.742654165241134 -2.5681759239129356 0 0 0
1715 1 -2.8961764923399755 -13.498809041512285 -7.346124137972833 0 1 0
1307 1 -2.271944361159589 -9.836606253005632 -4.6238281142103155 0 0 0
1153 1 -0.5648463785700066 -12.259694159394298 -6.935546597316739 0 0 0
1175 1 1.6353531514854112 -10.983718536628217 -6.81998115589634 0 0 0
1197 1 0.1665195038916405 -11.127171663112456 -4.8362409791520715 0 0 0
1306 1 -2.307675253990581 -12.44538749685551 -5.032803606109107 0 0 0
1284 1 -1.003855871925433 -9.883047748366812 -6.585501972873509 0 0 0
1217 1 0.5205344215567944 -12.765330061361864 -2.96461136655606 0 0 0
1304 1 -1.4154392923431676 -13.840170623540814 -3.1111038317596726 0 0 0
1732 1 -0.2517303743302861 -13.887970007445421 -5.288717419885993 0 1 0
1078 1 1.8153885930545464 -13.503482769872003 -7.411807575492297 0 0 0