LAMMPS data file via write_data, version 29 Sep 2021, timestep = 0

1869 atoms
3 atom types

-13.787055202426547 13.787055202426547 xlo xhi
-14.19458554846412 14.19458554846412 ylo yhi
-14.043043315329069 14.043043315329069 zlo zhi

Masses

1 55.847
2 1.008
3 1.008

Atoms # atomic

107 1 -12.257252484606393 -12.588328775066305 -11.300378026099274 0 0 0
151 1 -12.171627887202149 -11.57788144626769 -13.619319586012457 0 0 0
150 1 -11.27051112857624 -14.08279618863718 -13.618795789851406 0 0 0
577 1 -2.5989200635497074 -13.908326689173522 -1.9151553488505648 0 1 0
152 1 -9.839702751588106 -12.722968923585583 -12.217849574862576 0 0 0
176 1 -7.486634072813823 -12.950300447653145 -13.17379468644978 0 0 0
143 1 -6.0053780035075155 -11.683801559233782 -11.705431514752956 0 0 0
173 1 -3.669960309274378 -11.997747137236813 -12.679289298141958 0 0 0
1176 1 -13.570858444850446 -6.922287238336589 -13.840611986505104 1 0 1
182 1 -1.4149933743701482 -12.236638175318427 -13.63841159416634 0 0 0
95 1 -10.586150002772234 -10.329240033472265 -12.346976939430684 0 0 0
106 1 -12.89789691214178 -10.089425293529484 -11.399975187531282 0 0 0
93 1 -12.90643285239707 -9.22744847980977 -13.733067690949564 0 0 0
141 1 -8.209183163488495 -10.535419295201718 -13.181177166478376 0 0 0
142 1 -6.584874034038212 -9.290593316091087 -11.808721470045594 0 0 0
172 1 -4.362596644993953 -9.608022268384332 -12.62403458449479 0 0 0
198 1 -10.552453372867877 -1.5043141068778745 -0.46089630718012664 0 0 0
168 1 -1.9653214711466767 -9.688767209243938 -13.666305722768568 0 0 0
174 1 -2.158144355171915 -10.622339952583106 -11.425527438415445 0 0 0
169 1 -0.44506688167953534 -8.480336599815924 -12.21889627560486 0 0 0
94 1 -11.3372562320733 -7.96095683807148 -12.484241095392102 0 0 0
1084 1 -13.627175827733758 -7.700785191713206 -11.56369547698407 1 0 0
35 1 -11.935936581740352 -5.586146612796798 -12.562669781234534 0 0 0
57 1 -1.48627729679162 -3.5621822593344508 -1.9816536260624407 0 0 0
84 1 -8.881468277653859 -8.15081686623899 -13.219296579708208 0 0 0
86 1 -7.375009108963399 -6.905362535531577 -11.755407597643321 0 0 0
83 1 -9.603581892584824 -5.784321582838208 -13.319619558067716 0 0 0
135 1 -5.105385257765368 -7.161298613912021 -12.617251548814185 0 0 0
137 1 -3.4841864841016914 -5.821665104353798 -11.480314802115593 0 0 0
167 1 -2.7068829537695684 -7.350003451791977 -13.694635282144326 0 0 0
233 1 -1.1784826655471203 -6.017723339428175 -12.398306254436873 0 0 0
136 1 -2.7638224138790832 -8.277563897985395 -11.325560675603597 0 0 0
36 1 -12.68808066101056 -3.2556318928732217 -12.715752278141881 0 0 0
235 1 -10.367189094343841 -3.443293063727383 -13.442220836191375 0 0 1
37 1 -10.447542796029547 -4.315458600263119 -11.178449961656934 0 0 0
85 1 -8.021708563844319 -4.493166200051498 -11.99482140743837 0 0 0
223 1 -5.793282113443004 -4.845064440480044 -12.799317957014898 0 0 0
225 1 -4.298871746833392 -3.4139160798761665 -11.609643988556522 0 0 0
231 1 -3.5317742051095316 -4.948593971471832 -13.782154120760536 0 0 0
232 1 -2.0358016292384775 -3.7144931705837507 -12.551476879001608 0 0 0
208 1 -10.946275873395491 -1.0326178217659585 -13.599269933928873 0 0 0
210 1 -13.304700524452528 -0.6832094111302816 -12.541202411857661 0 0 0
203 1 -11.146586957220896 -1.988632871364299 -11.38084874792217 0 0 0
212 1 -8.813510764617472 -2.20040596559771 -12.109319953229129 0 0 0
171 1 -5.221557844636461 -13.280744638872676 -13.988135874603579 0 0 0
222 1 -6.512328439575673 -2.3787027707333763 -13.131398914677293 0 0 0
224 1 -5.219935100178317 -1.0628837853462194 -11.869823429026717 0 0 0
220 1 -2.5832822162817877 -1.341175947551866 -12.833974516366805 0 0 0
229 1 -0.2284173877585456 -1.5702525894924086 -13.703596970006165 0 0 0
221 1 -0.46240593247746453 -2.408359308073665 -11.157221166341799 0 0 0
118 1 -12.308216733922132 -13.455177843596108 -8.992460324665128 0 0 0
162 1 -10.009902483081289 -13.733687412252852 -9.89562456730027 0 0 0
154 1 -7.649643688048357 -13.921949613045633 -10.796598731332102 0 0 0
163 1 -8.462441700427235 -12.47697233620618 -8.704148824298851 0 0 0
153 1 -8.340589380014091 -11.388426934879881 -10.949644231251536 0 0 0
156 1 -6.092155191708892 -12.585092153611045 -9.503205692803522 0 0 0
178 1 -3.7945595062645943 -12.904481438197484 -10.283660229862633 0 0 0
479 1 -1.4325666889115283 -13.188179842783917 -11.302393861906548 0 1 0
179 1 -1.5550796792133443 -13.950904715885917 -9.017592378430153 0 0 0
147 1 -2.181441249430552 -11.587956031539276 -9.045207056648596 0 0 0
109 1 -10.666807529724533 -11.20979890935384 -10.088357910381418 0 0 0
119 1 -13.069136651470183 -10.98486524958472 -9.112017561098451 0 0 0
108 1 -11.362728090158244 -8.832822085628605 -10.158773306534787 0 0 0
199 1 -12.710605775850075 -0.5508382162437897 -1.9620806848375363 0 0 0
97 1 -9.115090126302453 -9.028061507348173 -10.942734543278577 0 0 0
110 1 -9.116764357398107 -9.952771844966648 -8.638031001690592 0 0 0
155 1 -6.788116986598526 -10.036443010008124 -9.56351716127742 0 0 0
145 1 -4.44701614715378 -10.475014992629212 -10.3078291857694 0 0 0
1109 1 -0.5967101239437262 -9.45396921875647 -9.946339915360687 0 0 0
146 1 -2.969520814892034 -9.205993692261874 -9.024800883689768 0 0 0
48 1 -12.022676448907932 -6.447276674678953 -10.167049379417959 0 0 0
96 1 -9.78519208309456 -6.698292550682685 -11.071744848903029 0 0 0
98 1 -7.610306310135311 -7.742101002598004 -9.496266734853315 0 0 0
50 1 -9.883688344740047 -7.648469084970831 -8.748604429309985 0 0 0
144 1 -5.096157205734249 -8.039857936132137 -10.449410858616975 0 0 0
90 1 -3.5897014279966193 -6.798135838816833 -9.073833194518333 0 0 0
138 1 -1.2559451691437769 -7.024937839828564 -10.152180155690928 0 0 0
1 1 -12.724301746615216 -4.075946485567849 -10.342776661817952 0 0 0
49 1 -10.498406430986499 -5.237327171820157 -8.811467595449495 0 0 0
39 1 -8.207230093968006 -5.392795412552417 -9.688071682620436 0 0 0
38 1 -8.986711357541811 -2.9063288917254955 -9.80878215097962 0 0 0
88 1 -5.754594569496966 -5.694658777837972 -10.499356999098138 0 0 0
87 1 -6.5712259417791 -3.243563144129695 -10.637886879025842 0 0 0
89 1 -4.373250853102048 -4.310602521263085 -9.18045181184471 0 0 0
1138 1 -0.5038045962906317 -3.1425041777836302 -8.748604844841832 0 0 0
227 1 -2.026474492675076 -4.521126896839325 -10.131609777166272 0 0 0
3 1 -11.272440883439177 -2.731752293721513 -8.976846093092785 0 0 0
2 1 -11.951376568697057 -0.42464106203539664 -9.039856860801908 0 0 0
517 1 -13.262996138538425 -1.8095192053400684 -10.421859872287975 0 0 0
204 1 -9.63186249048529 -0.6240278055505222 -9.802659444145448 0 0 0
214 1 -7.277528774037173 -0.903710161662481 -10.834003384775592 0 0 0
40 1 -7.433538131534146 -1.7924666419689324 -8.464298616394862 0 0 0
216 1 -5.083147634997564 -1.8948228664724756 -9.349302591763843 0 0 0
226 1 -2.804696121293471 -2.1043441721821186 -10.383065125586043 0 0 0
228 1 -1.2493396071080376 -0.8540674633511376 -8.887165245486031 0 0 0
472 1 -8.172290601972986 -1.8532339123136943 -1.3793936019261022 0 0 0
1451 1 -13.066774236780839 -11.726057225023768 -6.793876366463818 1 1 0
120 1 -10.741358829511226 -12.11540211556737 -7.730092119270419 0 0 0
122 1 -8.401934164606107 -13.184178686115832 -6.427785349494418 0 0 0
164 1 -6.236044088053572 -13.472644852642684 -7.217423837609954 0 0 0
158 1 -3.7938427181823187 -13.699175917473653 -8.009543090993049 0 0 0
115 1 -4.7379105112208375 -12.195661927933537 -5.726500087525462 0 0 0
166 1 -2.249573011374565 -12.391098582248208 -6.737909587616845 0 0 0
191 1 -4.482454662535849 -0.9470041535879332 -1.0066441019116557 0 0 0
61 1 -11.445913310285482 -9.67466805955707 -7.803141543780188 0 0 0
406 1 -5.245006068418636 -5.327493018740151 -0.039409845338092 0 0 0
121 1 -9.162279140560674 -10.731559270025585 -6.370729227194154 0 0 0
112 1 -7.581640506491166 -8.672866862504307 -7.258087811515161 0 0 0
111 1 -6.986260705954851 -11.108514786483052 -7.236494638046958 0 0 0
157 1 -4.6293887499057735 -11.316569239385283 -8.147275898664763 0 0 0
99 1 -5.240373490683348 -8.834641027875932 -8.144062328119595 0 0 0
113 1 -5.440493652942811 -9.830744954719538 -5.933227346067133 0 0 0
159 1 -3.0322826239715237 -10.025921012821968 -6.760369581337607 0 0 0
180 1 -0.7587002175672488 -10.249164749952211 -7.637072401932503 0 0 0
60 1 -12.06129255784067 -7.315790634546726 -7.775592004653653 0 0 0
62 1 -10.583427574592989 -5.91565974004096 -6.504133641436139 0 0 0
63 1 -9.956709010205534 -8.372548453950085 -6.343574099597081 0 0 0
52 1 -8.194528811791145 -6.344987855487256 -7.41706104926403 0 0 0
100 1 -5.998432652369822 -6.366014492933888 -8.239887470096457 0 0 0
101 1 -3.7521800789555044 -7.638483414890866 -6.76696245055227 0 0 0
54 1 -6.1008274450366935 -7.163908574055265 -5.9459839182227245 0 0 0
148 1 -1.3770636117071096 -7.8984589650400885 -7.7934480099129315 0 0 0
23 1 -12.770160181680954 -4.859996926754512 -8.013585869035946 0 0 0
14 1 -11.254608213197592 -3.607835445125909 -6.4841949847786156 0 0 0
51 1 -9.03429796947212 -3.8643121640267335 -7.5092876355621305 0 0 0
41 1 -6.698696706797098 -4.036457365305385 -8.352163886588883 0 0 0
53 1 -6.949168131674382 -4.820621108358347 -5.981583209637744 0 0 0
43 1 -4.478790356942541 -5.221006207680476 -6.931900125899023 0 0 0
91 1 -2.0374722397459486 -5.565584419011973 -7.718881879058869 0 0 0
92 1 -0.5015615309215491 -3.978883196084027 -6.4406786391392 0 0 0
218 1 -2.701040873405576 -3.060349995776125 -7.864266052442188 0 0 0
13 1 -13.556276583086687 -2.6390805692896997 -8.087929787067463 0 0 0
188 1 -11.998567571858336 -1.3026639589879938 -6.657938743207951 0 0 0
189 1 -8.141386611804966 -0.08462848898671993 -6.252344427380918 0 0 0
4 1 -9.643698714517738 -1.5181992460508287 -7.37738645774133 0 0 0
5 1 -7.508046441102997 -2.503038538670058 -6.1340632660848735 0 0 0
42 1 -5.002133990879557 -2.7747978288242727 -7.012390516981013 0 0 0
205 1 -5.86733186844035 -0.5855491100939041 -7.023349804103048 0 0 0
217 1 -3.5237630433562384 -0.531691081107132 -8.139501530541821 0 0 0
44 1 -3.603429385508772 -1.4673462589439712 -5.6064018065450565 0 0 0
219 1 -1.3250082617070493 -1.7283991800729535 -6.656659883518441 0 0 0
129 1 -10.708041407009496 -12.97738704020514 -5.441671277709485 0 0 0
78 1 -13.099046020188721 -12.61926679652817 -4.552213320722727 0 0 0
130 1 -10.78833262642574 -13.732906836048434 -3.0406872917897303 0 0 0
558 1 -11.630607801460194 -11.378399235492681 -3.103134949475656 0 1 0
573 1 -8.527855817612924 -13.986289290062713 -3.9052307053310926 0 1 0
571 1 -9.266107687854284 -11.534446667648181 -3.9608948427180355 0 1 0
124 1 -7.052688299837186 -11.835274571148354 -4.898144833632303 0 0 0
132 1 -4.686701460724693 -12.902989394966434 -3.4720878797669954 0 0 0
1116 1 -0.173512591532603 -13.441071810067903 -5.096155207001923 0 0 0
616 1 -2.488529413228724 -13.131135755060146 -4.36505148083028 0 1 0
126 1 -0.92966303557054 -11.872120147182375 -2.8566179522698274 0 0 0
69 1 -11.487337275094562 -10.50993780022854 -5.486177376056935 0 0 0
79 1 -12.268846693073435 -9.01474454214129 -3.32863838955239 0 0 0
117 1 -13.706286406586948 -8.558542498569592 -9.249885707889884 0 0 0
71 1 -9.99536095991754 -9.2234930283098 -4.034798018863118 0 0 0
123 1 -7.784323776121323 -9.508489730539575 -4.972505062737831 0 0 0
125 1 -5.562854959080868 -10.704240828942563 -3.4258385812371834 0 0 0
114 1 -3.889749613970391 -8.470597401139722 -4.526612397057688 0 0 0
1114 1 -0.7961656529642767 -11.009281680223474 -5.141457212316869 0 0 0
116 1 -3.182531105025987 -10.750151439497346 -4.45021011915054 0 0 0
67 1 -1.7893873942012721 -9.423078921932344 -3.0328416657102117 0 0 0
103 1 -1.57063398122542 -8.666983825067213 -5.497611171025415 0 0 0
24 1 -12.851515995578364 -5.801294678708047 -5.6494426412528185 0 0 0
1017 1 -12.229557536739371 -8.101958061216111 -5.574863312100684 1 0 0
59 1 -10.748579454712537 -6.811509504406089 -4.13675052728717 0 0 0
29 1 -13.03358645936801 -6.592026181151596 -3.3079455602387338 0 0 0
74 1 -8.536217949910174 -7.020699782257073 -5.060779890338511 0 0 0
64 1 -6.894916037564259 -5.814059544298265 -3.7515996365766124 0 0 0
65 1 -6.193800866107435 -8.305283902906707 -3.58550787095305 0 0 0
20 1 -4.541423225369382 -6.181086608852846 -4.598243828884016 0 0 0
102 1 -2.3423648439425833 -6.265292938996514 -5.313709527427697 0 0 0
58 1 -2.513082405695352 -7.183045975628186 -3.0575360449973985 0 0 0
22 1 -13.606822718555994 -3.402047603141167 -5.657145021430031 0 0 0
200 1 -11.473292924181335 -4.416321409824141 -4.259815234900531 0 0 0
1064 1 -13.72694287816833 -4.250492330520409 -3.3036565601446455 1 0 0
16 1 -9.123529781719556 -4.648883596305897 -4.901705092684724 0 0 0
18 1 -7.482690608711729 -3.353854716951769 -3.7503349810801208 0 0 0
25 1 -9.231620926968832 -5.509247985053124 -2.658501776764126 0 0 0
195 1 -9.76560046924434 -3.151430721711389 -2.7364828449566794 0 0 0
55 1 -5.185472494977388 -3.8239416908703667 -4.714260624399802 0 0 0
45 1 -2.917749375789249 -3.9482622816150386 -5.573885451775405 0 0 0
104 1 -0.6500452278371487 -4.962415178435961 -4.199791190792476 0 0 0
56 1 -3.177118527271727 -4.779333754827503 -3.3056766043329624 0 0 0
193 1 -12.042349120455013 -2.165217876275154 -4.307297422316713 0 0 0
194 1 -10.401988114255674 -0.78604118704299 -2.8416195466689693 0 0 0
15 1 -9.762173289591491 -2.3163342492363697 -5.1486794622243846 0 0 0
17 1 -8.139184843228222 -1.0743073733522532 -3.8271853333903856 0 0 0
7 1 -5.907785438653659 -1.2190059824065713 -4.771931899829875 0 0 0
9 1 -3.732646521427478 -2.4593908770435444 -3.2853700182919603 0 0 0
11 1 -2.106407768987058 -1.1045816770715735 -2.0411097033967938 0 0 0
207 1 -2.177825272740577 -0.18768622036583693 -4.365446138904481 0 0 0
46 1 -1.4424857304896648 -2.579960663469741 -4.249022617918159 0 0 0
557 1 -13.06801284001167 -13.591762021034429 -2.280234095617514 0 1 0
553 1 -11.736120746737004 -12.332781385733764 -0.8030665820509135 0 1 0
82 1 -7.150270316789429 -13.616820810877112 -0.17147425226004565 0 0 0
80 1 -9.342079361410715 -12.406318454272839 -1.7562655000392784 0 0 0
131 1 -6.98914144635187 -12.853274819717692 -2.5257966684136868 0 0 0
554 1 -4.833653202322262 -13.784488149879989 -1.1157738124267933 0 1 0
77 1 -5.592571583509637 -11.437646825633774 -1.130774100925887 0 0 0
1016 1 -13.774901113852499 -9.444242752975672 -6.902139303920322 1 0 0
127 1 -3.286157066395134 -11.55957170147732 -2.1023319844969777 0 0 0
128 1 -0.9762222871555899 -12.808201579937581 -0.5204987291188736 0 0 0
34 1 -12.291363920964175 -10.017554845717118 -0.991861082507576 0 0 0
81 1 -7.844404105006539 -11.237745858694346 -0.2840791918489902 0 0 0
73 1 -7.75848272879109 -10.354665211887374 -2.5239338863570158 0 0 0
397 1 -8.467359316127853 -8.833350278114883 -0.24542614088973558 0 0 0
31 1 -10.011511931507249 -10.100073490587999 -1.6363315790295765 0 0 0
75 1 -6.34547754504166 -9.058441857723643 -1.0777779620459587 0 0 0
76 1 -4.1307171331086785 -9.297396112352157 -2.074746470367005 0 0 0
374 1 -1.7842976703164606 -10.278040878191247 -0.8719387416296396 0 0 0
30 1 -10.678562008347319 -7.8660713410922165 -1.8341197594791687 0 0 0
960 1 -12.899020840565656 -7.607338169404403 -0.9017107579393464 1 0 0
72 1 -8.385485286585205 -7.95148594771046 -2.673984581900342 0 0 0
32 1 -9.110674827655759 -6.402984625075077 -0.3423692436125023 0 0 0
27 1 -6.987807252251884 -6.515324494773311 -1.3014128274221655 0 0 0
66 1 -4.672094990589274 -6.9271860008557065 -2.258482599037885 0 0 0
19 1 -5.968545437392724 -2.179955113207493 -2.509346565460234 0 0 0
395 1 -2.5258095034736616 -7.940842091958357 -0.814455912747011 0 0 0
941 1 -0.7799804511610304 -5.849799253852488 -1.830929893505452 0 0 0
1066 1 -12.04238176484677 -2.9889552404404647 -1.94452364648585 1 0 0
449 1 -5.9476092923319905 -3.010649797177214 -0.028748842345008185 0 0 0
456 1 -11.389644304139988 -5.33535247327819 -1.8024424922978923 0 0 0
201 1 -9.792865428992387 -3.953397661448877 -0.3972915783739772 0 0 0
26 1 -7.5530247926001435 -4.212404542885899 -1.3120213587399814 0 0 0
28 1 -5.444677642593657 -4.479514635923566 -2.4238441902226437 0 0 0
21 1 -3.751020345716947 -3.2945471310394367 -1.0076251327626213 0 0 0
68 1 -3.0827713063882776 -5.6272884376113215 -0.9337282710832167 0 0 0
1094 1 -0.06711928139842449 -7.352320888382433 -4.042095663989359 0 0 0
230 1 -4.238504715186595 -2.49241532750265 -14.000346649457537 0 0 0
202 1 -13.689859561665862 -5.222559853998316 -0.9613565107440198 0 0 0
430 1 -6.752291657212654 -0.599065926248608 -0.06355984563776573 0 0 0
8 1 -4.33488669712397 -0.0002381491609924069 -3.365273136694741 0 0 0
105 1 -13.5571559808684 -13.768435865027055 -12.754130320342286 0 0 0
569 1 -12.29075364096338 -14.189091806502558 -6.789302295848517 0 1 0
548 1 -1.107756274100426 -0.1051450890810095 -11.341959652059103 0 0 0
396 1 -11.75003036367754 -13.157541050483069 1.5209756769341176 0 0 0
377 1 -7.973380175363857 -12.057519482717154 2.060373292375697 0 0 0
560 1 -9.475412665779444 -13.408145653449338 0.551372439885558 0 1 0
368 1 -5.567597218588782 -12.235007042014725 1.0845538001022614 0 0 0
369 1 -3.4503942606627866 -13.357337040018928 2.616878141452087 0 0 0
371 1 -3.348817816725994 -12.42920219839272 0.2620365038052732 0 0 0
366 1 -1.1421509253148248 -13.682994954287611 1.8434447235835822 0 0 0
399 1 -12.299948531239302 -10.764453575505978 1.396946897284682 0 0 0
403 1 -10.105866280092334 -11.02698807240476 0.6320104350181435 0 0 0
404 1 -8.653170889394417 -9.614871575627769 1.9998658907747178 0 0 0
383 1 -6.349396217911023 -9.974617288913443 1.1081315322073273 0 0 0
385 1 -4.138193479905082 -10.922830243477804 2.5350861047630033 0 0 0
370 1 -3.9715754121158646 -10.021016920117392 0.2580949423754113 0 0 0
384 1 -4.7522204239901615 -8.48467900853899 2.4012305970726544 0 0 0
372 1 -1.7602160613217208 -11.18306364967077 1.6159275368507409 0 0 0
391 1 -2.452081322136955 -8.834216436091985 1.5920974260582508 0 0 0
1259 1 -0.22478553360741316 -9.134658548869252 0.723913702852446 0 0 0
402 1 -10.885591911466346 -8.588711454663432 0.5276090416032204 0 0 0
461 1 -13.059167065484864 -8.410039482418085 1.382200229885104 0 0 0
457 1 -11.556963089483668 -6.113872951470736 0.5110314184993232 0 0 0
428 1 -4.964189193372992 -0.0702041420168964 3.632123853567375 0 0 0
454 1 -9.212246904061491 -7.296954806944445 1.9102159938191523 0 0 0
405 1 -7.012532630416577 -7.400529901476556 1.0468873063964992 0 0 0
344 1 -5.482837426741334 -6.08940013950013 2.3987137720334992 0 0 0
389 1 -4.73186201595847 -7.695907906731704 0.10513117688675067 0 0 0
390 1 -3.1591562398410247 -6.488686794800542 1.626974091404323 0 0 0
1267 1 -0.9597831380810202 -6.678670958903999 0.47676450502885537 0 0 0
392 1 -0.9371557082473956 -7.594582901110393 2.9764143453086973 0 0 0
434 1 -12.056562801479584 -3.7397257729048725 0.5301039146238598 0 0 0
439 1 -12.127865751625936 -4.573655832405253 2.7784992302478884 0 0 0
455 1 -9.853333865686523 -4.930473788907555 1.9788726138932482 0 0 0
451 1 -7.538329396480693 -5.067828718437621 1.0213982112813813 0 0 0
339 1 -3.7718079266506646 -4.073157962037641 1.3288880372885767 0 0 0
450 1 -6.033982765393684 -3.724345540856369 2.3809526974249167 0 0 0
149 1 -13.658609556247947 -12.886736671096047 12.92064025602106 0 0 -1
240 1 -0.8361946853573681 -0.8258949381623069 11.723218731800436 0 0 0
394 1 -1.5474806846426006 -4.4737121545800935 0.5451457076065651 0 0 0
839 1 -12.847595299684054 -1.4178229440179688 0.2512594900688008 0 0 0
187 1 -10.539200421571183 -2.3096262277022994 1.9006587011055025 0 0 0
440 1 -12.834088843935085 -2.266736325158062 2.732351334238679 0 0 0
412 1 -13.69505192222978 -1.795832048886469 7.179136152886425 0 0 0
452 1 -8.178476666422736 -2.608661118264104 0.9334252469210096 0 0 0
197 1 -9.0018806577526 -0.2828836559807346 0.9830816169729815 0 0 0
448 1 -4.437260465244396 -1.6821087035878843 1.374630987675964 0 0 0
429 1 -6.741041223833931 -1.2904034465902985 2.325233956180899 0 0 0
338 1 -2.2867430857870215 -2.8039431857584685 2.7616129457815006 0 0 0
336 1 -2.188580081775523 -1.9711400642602044 0.2418831115184794 0 0 0
335 1 -0.7108201639477372 -0.6340049080653358 1.639189104678124 0 0 0
464 1 -12.531245016491088 -11.520838227130223 3.880892640834677 0 0 0
241 1 -3.3490484656865025 -0.06506577587152584 10.1842061971413 0 0 0
364 1 -10.360548785616457 -12.793813239060691 5.298504095694334 0 0 0
401 1 -10.264649033505293 -11.905248827048673 2.942451727863684 0 0 0
375 1 -8.002987262887137 -12.964338281906045 4.423705364925876 0 0 0
379 1 -5.65006146952847 -13.136638781415128 3.5028905553994036 0 0 0
380 1 -4.219766046231953 -11.773954196815579 4.894326616056983 0 0 0
387 1 -1.8209126972706997 -12.05142719283311 3.9615285240354794 0 0 0
459 1 -10.90261372801695 -9.425991852980102 2.9760978356363275 0 0 0
463 1 -10.974108122114096 -10.338400573274674 5.371958947225167 0 0 0
465 1 -13.179460896641189 -9.17645547332349 3.8056616860409953 0 0 0
359 1 -8.699878019627477 -10.59701964478488 4.336482103889139 0 0 0
378 1 -6.478760009164407 -10.777963825244754 3.4259541835931913 0 0 0
349 1 -4.806086082325745 -9.51243917764694 4.736284584549072 0 0 0
393 1 -0.3116137712833513 -9.981317489937904 3.04265666700336 0 0 0
386 1 -2.459388146166825 -9.710247968200076 3.9313693540281314 0 0 0
388 1 -0.2263494520115401 -10.78674443752296 5.386019785333801 0 0 0
460 1 -11.615695149861933 -6.981519346154213 2.8450082644491523 0 0 0
442 1 -11.607765886382339 -7.895739376832581 5.13879235427196 0 0 0
458 1 -9.176101129839282 -8.130761018545194 4.2382260038324375 0 0 0
351 1 -6.998570925187501 -8.3808720106244 3.29004028401755 0 0 0
453 1 -7.632061409505216 -5.945988752225501 3.4419631250807825 0 0 0
350 1 -5.626806950064767 -7.137346347509163 4.737447354699398 0 0 0
340 1 -1.0071564783776115 -8.352878867327242 5.203415190684428 0 0 0
342 1 -3.2585035932547903 -7.314336424807734 3.907329673684991 0 0 0
341 1 -1.6651613490697859 -5.926451231540328 5.180060955968262 0 0 0
443 1 -12.312180207418088 -5.598634780661618 5.053772708021192 0 0 0
422 1 -12.89836247506738 -3.1495637451927205 5.022698114239454 0 0 0
438 1 -10.526596229988396 -3.165902999456444 4.224058526389797 0 0 0
437 1 -10.010012196085293 -5.705538080601057 4.279444951633806 0 0 0
432 1 -8.234690176709506 -3.560503135567963 3.2291106774064424 0 0 0
343 1 -4.017698756360783 -4.943983894845367 3.7751222459819402 0 0 0
304 1 -6.202785253706515 -4.606988877268618 4.895377792790324 0 0 0
337 1 -1.524868563886196 -5.268654645385643 2.9258826897664996 0 0 0
296 1 -2.476440714717583 -3.58293924583284 5.020137412988014 0 0 0
170 1 -5.80018996812851 -10.932387574990017 13.910781185177349 0 0 -1
418 1 -11.230282095480685 -0.7371813557136573 4.200113393312787 0 0 0
1186 1 -13.649857067078747 -0.7230373479068142 5.000292746614178 1 0 0
433 1 -8.858806086823911 -1.0337211793447292 3.433477617053711 0 0 0
298 1 -4.494495936202783 -2.4887233222500065 3.7618985112272796 0 0 0
431 1 -6.742495826509744 -2.052428368961989 4.6776366574200665 0 0 0
293 1 -2.7789176407589338 -0.4275300581780854 2.6823191194605123 0 0 0
292 1 -0.7455946098700341 -1.4723256201716186 3.9958633081324244 0 0 0
297 1 -2.970655838907623 -0.8296288991935317 5.183825502792736 0 0 0
466 1 -12.694462607290994 -12.476822708265631 6.148811071696581 0 0 0
365 1 -10.448768344204439 -13.737720360650759 7.441568507326302 0 0 0
328 1 -11.20020212224516 -11.225727065915972 7.5944982373741645 0 0 0
362 1 -8.084249249869128 -13.985760045877432 6.6443612576161115 0 0 0
363 1 -8.759280642559178 -11.446425242936595 6.661848231974062 0 0 0
357 1 -6.549271512570737 -11.697343536649546 5.890334402019757 0 0 0
361 1 -6.529631556607825 -12.682675102874509 8.11729147361915 0 0 0
355 1 -4.273408938933011 -12.802856441757452 7.164319460246617 0 0 0
1389 1 -0.18384520227821355 -3.805511525073502 4.166511589321786 0 0 0
381 1 -2.0060005818989133 -13.133245401115365 6.397020032183054 0 0 0
345 1 -0.4162737708572166 -11.778044992136117 7.557151324557967 0 0 0
446 1 -13.290305974937683 -10.100155113194297 5.954395415620834 0 0 0
445 1 -11.833559462410205 -8.738732603435812 7.496824480609149 0 0 0
447 1 -13.476025754661823 -10.973824177886117 8.324112836025066 0 0 0
358 1 -7.202405458672823 -9.354885532689071 5.6687072411433554 0 0 0
321 1 -9.534254610957522 -9.053817952818115 6.62626502963807 0 0 0
319 1 -7.239220611335916 -10.255284113721823 8.061209022287322 0 0 0
356 1 -4.911181986055865 -10.457779947021642 7.138111755719802 0 0 0
347 1 -2.616905850333424 -10.5522830852343 6.160014639509221 0 0 0
346 1 -1.105614584623213 -9.373360183876414 7.729677761726666 0 0 0
308 1 -3.394680601669048 -9.139324697421863 8.468303597577666 0 0 0
425 1 -12.502611094333382 -6.359095034902659 7.408931791552838 0 0 0
312 1 -7.762548370352159 -6.792475190386413 5.735180099816056 0 0 0
441 1 -10.093408283866198 -6.5375793672848515 6.58342035552079 0 0 0
320 1 -7.924617177296487 -7.705739440495097 7.920363724170915 0 0 0
310 1 -5.697923467735926 -8.04237559535526 7.122641459186827 0 0 0
302 1 -3.9730760980439417 -5.85542703628367 6.06317591367678 0 0 0
309 1 -4.125398014516014 -6.6048027839564645 8.44519628457563 0 0 0
348 1 -3.3139040866843494 -8.149782746488265 6.121549766627254 0 0 0
300 1 -1.7639063952250247 -6.853331446956317 7.472671845410268 0 0 0
426 1 -13.138695310914777 -4.073962828841337 7.482818671487465 0 0 0
420 1 -10.63865787224313 -4.154738903419144 6.388963765725627 0 0 0
436 1 -8.325038894928834 -4.40402670820516 5.8561345301102214 0 0 0
275 1 -8.459304986196397 -5.178206000474047 8.083939979209248 0 0 0
419 1 -9.035103812716613 -2.6893202929191293 7.992305486881168 0 0 0
311 1 -6.145370780910535 -5.461441910584208 7.235692113488479 0 0 0
303 1 -4.564840110694972 -3.1088059601206233 6.245781252548571 0 0 0
268 1 -6.736264796239745 -2.9557671945169535 7.152585171219393 0 0 0
398 1 -11.929898942242184 -13.979110766829567 3.8036392690767755 0 0 0
301 1 -2.5080789261208682 -4.444698347027019 7.306964835221194 0 0 0
421 1 -11.375762468944517 -1.78066800685958 6.475943789583717 0 0 0
244 1 -3.2308020186501683 -0.7752362745352865 12.521680688396213 0 0 0
417 1 -9.027474595398507 -1.8567060314038333 5.660080252737803 0 0 0
416 1 -7.471294820084493 -0.5161978002066192 7.053272691874557 0 0 0
407 1 -9.78195356567015 -0.2950087344503416 7.8962116079998985 0 0 0
261 1 -4.99275203062807 -0.6602074485194169 6.276894307875786 0 0 0
295 1 -0.806937278740472 -2.2214414024505214 6.27547855203704 0 0 0
260 1 -2.7709839820481523 -1.8056339615072758 7.780484473190047 0 0 0
333 1 -12.693673643474883 -13.419930598153114 8.405309530036185 0 0 0
334 1 -13.32402184490433 -11.97297958209243 10.627735142558304 0 0 0
332 1 -11.081309085308266 -12.268718680306891 9.820538397828042 0 0 0
326 1 -8.867549918511926 -12.577192884162088 8.900563261110552 0 0 0
324 1 -6.590306340602922 -13.739377090055246 10.335097129346913 0 0 0
360 1 -4.485424903135822 -13.857877938030185 9.414357196479394 0 0 0
354 1 -2.8226094084506013 -11.465169866009234 8.388177813408568 0 0 0
353 1 -2.090152154200002 -13.945455270115133 8.569368749391614 0 0 0
352 1 -0.42800362455845864 -12.688647118869014 9.840439096037244 0 0 0
315 1 -2.837676386582789 -12.424846250465949 10.833690916797543 0 0 0
287 1 -11.82373826669668 -9.790445712196028 9.779842540926477 0 0 0
325 1 -7.382113961215766 -11.21330837442415 10.312266150572999 0 0 0
327 1 -9.588771347653205 -10.043940950017806 8.875903122363493 0 0 0
285 1 -9.653858990398039 -11.040155791499272 11.188293920012704 0 0 0
280 1 -8.043776634414964 -8.703311403217032 10.30058244756762 0 0 0
317 1 -4.9508829657468 -11.317608516847727 9.426960512933174 0 0 0
318 1 -5.742779105257563 -8.838942800241222 9.425024644329078 0 0 0
316 1 -3.5320227996305977 -9.99128298444747 10.76008742624688 0 0 0
306 1 -1.1250983316965648 -10.310292158702095 9.85517001977205 0 0 0
427 1 -12.538202070599011 -7.321090480814255 9.67531935302074 0 0 0
254 1 -10.944030514435504 -6.17511714035337 11.015792538376374 0 0 0
286 1 -10.401616053426414 -8.618293051423414 11.10226127995324 0 0 0
282 1 -10.202397692356499 -7.549507987703293 8.831118805200326 0 0 0
281 1 -8.555540052673441 -6.2127837959643 10.300096183449696 0 0 0
273 1 -6.439362146874151 -6.5400709416643945 9.363687862610572 0 0 0
271 1 -4.2888621963271465 -7.575327624681585 10.694173094341327 0 0 0
307 1 -1.920539744114997 -7.7679763667691235 9.803723448987014 0 0 0
262 1 -0.3123413030397746 -6.615985761345029 11.151849142327698 0 0 0
414 1 -13.19944913614296 -5.078181890577092 9.63122745289538 0 0 0
413 1 -11.59074323437157 -3.7603200124028966 10.932635206695736 0 0 0
424 1 -10.73575396547946 -5.071969396785059 8.814594908024386 0 0 0
251 1 -9.189544384231954 -3.8316075714862663 10.188455400678539 0 0 0
274 1 -6.8906569737770615 -3.821533738508432 9.489059069976463 0 0 0
266 1 -4.446620371110054 -3.9952458269619804 8.540322971129594 0 0 0
272 1 -4.944842435608974 -5.251991149355453 10.721888097294851 0 0 0
299 1 -0.26895179372072064 -5.602130816213231 8.796171379555599 0 0 0
264 1 -2.485162036908184 -5.36367628590247 9.700705692083364 0 0 0
258 1 -0.863509734795862 -3.186050202170472 8.69994993203009 0 0 0
263 1 -0.9807050532361252 -4.102326617211919 11.163070731063403 0 0 0
294 1 -0.15394263551554843 -4.7404573913017565 6.504488338029304 0 0 0
409 1 -12.465509384215768 -1.3496323212570633 10.834372001132394 0 0 0
411 1 -11.558744583588473 -2.6836483396426463 8.69850066817493 0 0 0
410 1 -9.800730408576896 -1.1139259029184263 10.037490109965294 0 0 0
246 1 -7.317549266390492 -1.2828004555013006 9.628856274853469 0 0 0
267 1 -5.286204837966794 -1.5311965124447298 8.626589660426141 0 0 0
245 1 -5.0914605660076315 -2.403319002329825 11.200046324965612 0 0 0
265 1 -2.5734970082543 -2.3679931224524804 10.34634742499837 0 0 0
259 1 -0.9624639703412754 -0.1851778339345298 9.351379898329014 0 0 0
236 1 -10.139071594191837 -2.5134116162662945 12.309843507725397 0 0 0
290 1 -11.242693428893471 -13.161281464429539 12.222307106801349 0 0 0
239 1 -5.743097255091504 -0.757020682974682 13.155704347516345 0 0 0