LAMMPS data file via write_data, version 2 Aug 2023, timestep = 0, units = metal

1866 atoms
3 atom types

-13.671031661561232 13.671031661561232 xlo xhi
-13.894463439973828 13.894463439973828 ylo yhi
-14.45924192973509 14.45924192973509 zlo zhi

Masses

1 55.847
2 1.008
3 1.008

Atoms # atomic

1213 1 -11.691740841054482 -11.133353395374991 -11.900919251882753 0 0 0
1326 1 -12.960317433039519 -9.49446065188411 -13.105428762627346 0 0 0
1328 1 -11.927537363197173 -13.404952747109933 -11.452340870529566 0 0 0
1322 1 -9.581812573115329 -10.113619174052216 -11.063421491782762 0 0 0
1323 1 -12.63386862825841 -9.843891305098268 -10.438371825725856 0 0 0
1859 1 -9.32113846608621 -13.103245444406905 -11.544111518460461 0 1 0
1215 1 -10.739479602373986 -11.79445088144531 -9.74347564379779 0 0 0
1319 1 -10.121514247705239 -9.353008012269527 -13.217882383002863 0 0 0
31 1 -12.986633793477376 -12.528791205358322 -13.351784253010267 0 0 1
1313 1 -10.896908283930523 -8.82476350829134 -9.155415244256073 0 0 0
1216 1 -10.343774116194243 -12.074466356691149 -13.590349174867118 0 0 0
1311 1 -8.315748612985344 -8.650791560130756 -9.170441669972586 0 0 0
1117 1 -8.049312806641646 -11.628723282312333 -13.007355134951439 0 0 0
1212 1 -7.808162864887882 -11.604781791935796 -10.18931208553746 0 0 0
1211 1 -7.304298817580935 -9.218957684820767 -13.42348321513916 0 0 0
1112 1 -5.041236376978828 -11.477634426860483 -10.17542330342329 0 0 0
1116 1 -5.794823801544328 -10.815068253358742 -12.373286853192255 0 0 0
1200 1 -3.5819853278114167 -9.807170437670838 -11.435470435788698 0 0 0
1210 1 -7.052939557155776 -9.619355802264774 -10.902115641275445 0 0 0
1038 1 -3.388884854904374 -12.78925231512256 -11.886786872665663 0 0 0
1826 1 -6.281866627434345 -12.99402668869053 -11.779548414912327 0 1 0
1208 1 -4.338278661860265 -9.220171940730129 -13.667577867100148 0 0 0
1201 1 -5.294412114468269 -8.532227313942222 -9.591776349884746 0 0 0
1111 1 -3.51758081418523 -12.984901075212871 -9.116065466991712 0 0 0
1114 1 -4.449554699225946 -11.83261734016002 -13.789379236896169 0 0 0
1113 1 -6.224375802412192 -13.251146071194 -9.055283560893866 0 0 0
1110 1 -2.042038267262882 -11.156890276267658 -13.136738648053848 0 0 0
1102 1 -1.989838744520343 -11.354078340486128 -10.381912105600467 0 0 0
1099 1 2.1923950396805 -9.588409711674664 -11.73930443099462 0 0 0
1101 1 0.8091972694790392 -11.164634026065432 -10.537058859743638 0 0 0
1036 1 -0.5366262871243599 -12.649632853062155 -12.21073401834478 0 0 0
1100 1 -0.701841411124601 -9.75736678096813 -11.597107178818788 0 0 0
1033 1 0.905854677449307 -10.987039114605674 -13.3690445349728 0 0 0
980 1 2.3553245877636986 -12.358632896230088 -12.096633200965028 0 0 0
1034 1 2.3594789131131417 -12.598493824119574 -9.255976736995226 0 0 0
1035 1 -0.5089906403060915 -12.799744872982068 -9.241908334698355 0 0 0
1186 1 -2.119420106789688 -8.437940507284218 -10.002371445961586 0 0 0
40 1 0.9492160410061032 -13.844440634815992 -13.524049780847662 0 0 1
1088 1 0.7212080018974447 -8.237982948539827 -9.98010502981797 0 0 0
1089 1 2.2043469185904296 -9.903221234606116 -8.999952602824251 0 0 0
1025 1 3.7544084617221944 -10.988136871869195 -10.510371797544048 0 0 0
1032 1 3.798300412056408 -10.8365140152684 -13.514294861717724 0 0 0
976 1 5.153996208006857 -12.284310075027548 -12.276082964522173 0 0 0
1023 1 5.21999465333217 -9.361054061476327 -11.748023902771958 0 0 0
1030 1 6.69285832244727 -10.808902673095567 -13.579777749073106 0 0 0
1022 1 8.09359675350973 -9.394210762259814 -12.064036698825307 0 0 0
1024 1 6.539844064688504 -10.947469190693848 -10.737743854865197 0 0 0
978 1 5.239253273294638 -12.591862727924031 -9.388540656574087 0 0 0
979 1 6.765663661329102 -13.5496293006667 -14.034904201569377 0 0 0
974 1 8.130577321742171 -12.0935378858602 -12.426209279251236 0 0 0
969 1 8.138212326781643 -12.398790939354889 -9.53423506870099 0 0 0
38 1 3.9611576662689334 -13.70316668920861 -13.908476715512936 0 0 1
977 1 6.762316222185069 -13.687353434266324 -11.215813336486072 0 0 0
1014 1 5.157006182306523 -9.645080060630512 -9.049967677075411 0 0 0
1682 1 3.9027527512839466 -13.82762974493979 -10.929317556472826 0 1 0
938 1 -13.430434342278673 -12.018710437807858 -9.772230781681573 1 0 0
967 1 9.150718514670183 -10.381952858771358 -10.256197080360245 0 0 0
1327 1 13.04448326716876 -11.107476650471158 -11.899639569365675 -1 0 0
941 1 11.4685549366304 -12.292077160651802 -13.400740312025084 0 0 0
966 1 11.819191992259197 -10.038079354329728 -10.35999396388705 0 0 0
973 1 10.32717488911374 -11.154541748311363 -11.8994767430962 0 0 0
34 1 9.683028116122705 -10.618529126968603 -14.161084412425204 0 0 1
22 1 11.596060002738694 -9.43781844885234 -13.016127898632622 0 0 1
968 1 10.819841739545668 -12.15176178310152 -9.69398355986984 0 0 0
942 1 12.437487135783867 -13.390402834282723 -11.512170796813033 0 0 0
975 1 9.714737085916985 -13.573749470678358 -11.384662631405892 0 0 0
945 1 9.673897424560996 -13.418696404962791 -14.315496146173361 0 0 0
965 1 10.291945000082885 -8.417357330604421 -11.333892009018887 0 0 0
21 1 13.050434605861666 -8.309087049707715 -11.391700426601437 -1 0 1
1321 1 -11.357774321179392 -8.283919620918383 -11.64395158175492 0 0 0
1438 1 -12.73860251082494 -7.039669224460612 -9.978448661370797 0 0 0
1440 1 -13.048701098650374 -6.672403410289122 -12.612170862056697 0 0 0
1426 1 -9.816469948160597 -4.130364082869118 -9.786178064364503 0 0 0
1435 1 -12.695033152502585 -4.107057165687197 -9.468378906906286 0 0 0
1436 1 -9.770822844972841 -6.9156008405389695 -10.200912805313516 0 0 0
1439 1 -11.342282396380877 -5.365722962187116 -11.16903150057743 0 0 0
1317 1 -10.111555780855719 -6.454828848378846 -12.887459975595924 0 0 0
1433 1 -10.151884504742224 -3.793308341299552 -12.460135608087514 0 0 0
1548 1 -13.019491261331982 -3.9016771570531237 -12.288552398236074 0 0 0
1434 1 -8.489498633127518 -5.27415339264968 -11.522633266779081 0 0 0
145 1 -11.821205376555422 -5.1285624194184365 -13.995392854669749 0 0 1
11 1 -8.791460941575316 -4.900610726693452 -14.193939635109391 0 0 1
1320 1 -8.460960509655859 -7.948963703892038 -11.951745044270263 0 0 0
20 1 -11.662044341450475 -7.677006942571974 -14.390522125187573 0 0 1
1199 1 -5.522195659190908 -8.065389032599743 -12.03309906951887 0 0 0
1318 1 -6.84603182564558 -6.784715240079878 -10.379989371254226 0 0 0
1305 1 -3.968371529340665 -3.9949548009200733 -13.264334322576826 0 0 0
1307 1 -6.9691448557200175 -4.223538231267874 -10.003223889175636 0 0 0
1316 1 -7.1808280405199785 -6.241252764277839 -13.12179991312449 0 0 0
1294 1 -3.915176366283866 -4.214164166128059 -10.451455106940742 0 0 0
1187 1 -5.508150277913515 -5.204352782603243 -11.888516923457585 0 0 0
10 1 -7.136834564680374 -3.687354512292508 -12.94888732213694 0 0 1
1198 1 -3.758442491513053 -6.899467323992917 -11.02439689433143 0 0 0
18 1 -4.035366173593713 -6.769361400034259 -13.850880891271025 0 0 1
1308 1 -5.328160218247358 -5.637528798559417 -9.082011398093877 0 0 0
1108 1 -2.1599229388291903 -8.408981474753443 -12.937427751874434 0 0 0
1184 1 0.7178100082223722 -8.120193172532446 -12.86836881276687 0 0 0
1306 1 -2.376250832904118 -5.499862087448019 -12.329065169028956 0 0 0
1293 1 -2.3617997446461825 -5.551058528500668 -9.264514070501058 0 0 0
1196 1 -0.8026746402451792 -6.646998664697636 -13.936756397316096 0 0 0
1185 1 -0.7534751490318445 -6.874827596201305 -11.266780001901312 0 0 0
1291 1 -0.8599857987357584 -4.023387388516081 -10.806996416581542 0 0 0
1183 1 0.66350262434322 -5.379273858579715 -12.429901854930664 0 0 0
1171 1 2.004256064283066 -3.9668790136683363 -10.972472665092415 0 0 0
1086 1 2.1384850453773385 -6.778895306125472 -11.216123627040316 0 0 0
1289 1 1.9641289642246047 -3.702965392848567 -13.61952765337917 0 0 0
1304 1 -0.9237224880299149 -3.786079747816663 -13.666651603391607 0 0 0
1173 1 0.5518983348946218 -5.526412046277409 -9.606072090849462 0 0 0
1098 1 2.065099561775936 -6.568579619425263 -14.175195316662311 0 0 0
1087 1 3.6396400166248295 -8.18412660574868 -10.112222752537992 0 0 0
1012 1 6.5208135880414115 -8.011064255588373 -10.168910579300235 0 0 0
1172 1 3.6002934987711743 -5.444034072944078 -9.821394151874308 0 0 0
1182 1 3.4608738457742714 -5.339291429159566 -12.526505694372977 0 0 0
1021 1 6.588047303313692 -7.8832997525382495 -13.29640209653591 0 0 0
1097 1 3.7035632397578464 -7.956206941405413 -12.976471842169047 0 0 0
1072 1 8.023808928130121 -6.630245707420238 -11.679919379799674 0 0 0
1085 1 5.075216285849754 -6.6093769321845635 -11.429021799815551 0 0 0
1170 1 4.934428174396588 -3.6639223847491245 -10.998254805401311 0 0 0
1083 1 6.522136811692084 -5.074266265335911 -12.746478293610592 0 0 0
1158 1 6.313297165697604 -5.180727802659661 -9.730802997601337 0 0 0
1168 1 4.960533755740647 -3.5457552768173652 -13.714006546480016 0 0 0
1070 1 7.863811865221537 -3.625799864007666 -11.054556003555422 0 0 0
1167 1 7.948375341039492 -3.454562088918067 -14.054214137428145 0 0 0
1084 1 5.117119973694537 -6.3505398418351255 -14.344030206721566 0 0 0
1071 1 8.75967059379405 -4.873960577287145 -9.26607170389704 0 0 0
1009 1 9.106700717548394 -7.507792416397463 -9.679233173400046 0 0 0
165 1 12.90356617046554 -7.80682631405034 -14.170766520274933 -1 0 1
1551 1 13.161599912163906 -5.387253660985623 -10.873444982607182 -1 0 0
1008 1 9.428355236708972 -4.82348723515307 -12.989119275135781 0 0 0
1010 1 9.632769319058701 -7.711429253262773 -13.617477614774097 0 0 0
956 1 11.767755647632706 -7.0559809327412735 -9.813803888023621 0 0 0
1007 1 10.214496437645481 -5.585740434281872 -10.982744245940609 0 0 0
12 1 11.544492134918135 -6.724079707731527 -12.478652052064428 0 0 1
995 1 11.746609691799394 -4.3411183013003445 -9.387671278900502 0 0 0
1550 1 11.617453457117994 -3.940378723493442 -12.106475163666204 -1 0 0
146 1 12.823080000308847 -5.089707301003141 -13.81745441681544 -1 0 1
1067 1 10.114807648446332 -3.1527914075239014 -10.667461012089618 0 0 0
994 1 13.053097547050312 -2.765208128554578 -10.584857146215885 0 0 0
1068 1 10.892317002589353 -3.4612794909961604 14.439647397702377 0 0 -1
1541 1 -11.359238548890806 -2.6632964926968796 -10.779157587698487 0 0 0
1432 1 -8.332909781971374 -2.4629651902300864 -11.234603901306082 0 0 0
1546 1 -11.613789629124982 -2.2755313292170705 -13.516898023511969 0 0 0
1424 1 -9.740305600915633 -1.3316725782500836 -9.43336651696859 0 0 0
1547 1 -12.969102550629529 -1.205352884163199 -11.88427587898144 0 0 0
1649 1 -9.764321005743982 1.6224095990809388 -11.97707891950132 0 0 0
1745 1 -12.969458975511673 1.6468621682545752 -11.694538172563 0 0 0
1539 1 -9.992787406041089 -1.0356328360327414 -12.203898766838483 0 0 0
1651 1 -11.406760753534403 0.147945966507681 -10.514773845713945 0 0 0
105 1 -11.553478080697417 0.5350072151516887 -13.20283192332707 0 0 1
1656 1 -12.757344404547489 -1.429293089536559 -9.124067783602017 0 0 0
1650 1 -8.441279245768126 0.1474245750625265 -10.75383811373495 0 0 0
1653 1 -8.30279274620553 0.2577441236287097 -13.727458714951768 0 0 0
1640 1 -9.765695442967477 1.4624212275078392 -9.1148500234737 0 0 0
1545 1 -8.818694347064746 -2.1931615746487374 -13.889650852019361 0 0 0
1744 1 -13.109991278844639 2.091977385675319 -14.270922822276656 0 0 0
1044 1 -12.786986628037393 1.2927772777199902 -9.036566622940676 1 0 0
1741 1 -11.395799980738765 2.8195271120031737 -10.360130336712508 0 0 0
1739 1 -8.558179215030263 3.0546620698982796 -10.518156863180923 0 0 0
1423 1 -5.4473214489549235 -2.627146070513538 -11.49867819619171 0 0 0
1409 1 -3.8710359169208832 -1.2752992764693065 -10.031319771432365 0 0 0
1536 1 -3.9993028374299566 -1.1105748113099931 -12.930722500222346 0 0 0
1538 1 -6.909958568254277 -1.2651253538048532 -12.594484858373212 0 0 0
1648 1 -6.937745113219055 1.776529454603386 -12.149971847996243 0 0 0
1526 1 -5.540077554530887 0.27560543907508617 -11.031584063921684 0 0 0
1537 1 -5.425157018748736 0.5766835620908672 -14.053782522015439 0 0 0
1637 1 -4.146397239150392 1.8619680563532945 -12.442980938623101 0 0 0
1528 1 -6.767236545738173 -1.334656824150306 -9.699461946378204 0 0 0
1513 1 -4.100332025682732 1.5824135194947537 -9.662074380072614 0 0 0
1639 1 -7.044750958330799 1.594376921829518 -9.311170433107723 0 0 0
1524 1 -2.6691997305828146 0.5383347150540061 -14.22530750052309 0 0 0
1422 1 -5.16606348258834 -2.4894154455419724 14.454213406418322 0 0 -1
1525 1 -2.6046951157285854 0.3580348868389791 -11.299461262570933 0 0 0
1292 1 -2.401076721890062 -2.625756129749682 -11.842221905298974 0 0 0
1279 1 0.45985497594400115 -2.7333248852366356 -9.202429006629046 0 0 0
1406 1 0.4346912671610763 -2.4710711473050893 -12.08496644779429 0 0 0
1407 1 -1.0502800256800455 -0.9061444206326801 -13.098820303961105 0 0 0
1408 1 -1.0792367380701862 -1.1777975161181224 -10.322918982167954 0 0 0
1278 1 1.793636798642181 -1.030087081054699 -10.602127298930775 0 0 0
1395 1 0.28339078045939203 0.4598773082335299 -11.447200695107645 0 0 0
1276 1 1.693921433680341 -0.7729520928354674 -13.45944470200194 0 0 0
1381 1 1.6669663158111572 1.841309052158481 -9.89844697113642 0 0 0
1512 1 -1.1456844100276786 1.7716838168103628 -9.625306184732185 0 0 0
1393 1 1.50584973718877 2.1275365441020977 -12.665271110722207 0 0 0
1523 1 -1.268942476031004 1.875766436090128 -12.616518946416377 0 0 0
95 1 0.30383949352618345 0.7809608995619879 -14.387613883958293 0 0 1
1394 1 3.061462606356743 0.5740131567412519 -11.624398370407564 0 0 0
1264 1 3.3952281811652814 -2.425482857923077 -9.30474324805347 0 0 0
1277 1 3.315947891062942 -2.2794572094677292 -12.130288240040349 0 0 0
1262 1 6.204486999010163 -2.31358149767744 -9.148271304059817 0 0 0
1154 1 6.404045144980278 -2.250760349464919 -12.081432595764028 0 0 0
1275 1 4.709568247962919 -0.77572484277181 -13.250924424663848 0 0 0
1260 1 6.077704366570083 0.6538055367559519 -11.77295259885578 0 0 0
1152 1 7.586832905242362 -0.6769307752564018 -13.435126048188101 0 0 0
1380 1 4.893699433424802 -0.79450944362884 -10.465924046216173 0 0 0
1261 1 7.596067896087247 -0.7729667749408655 -10.539114277564972 0 0 0
1378 1 4.580118714565577 1.9889797264456863 -10.170654969188318 0 0 0
1246 1 7.087002411757458 2.4916520728540004 -9.755426298142147 0 0 0
1392 1 4.479330332764961 2.231019852274825 -12.949194297387997 0 0 0
1258 1 7.675742633511986 2.2293381840949014 -13.449957724775834 0 0 0
1259 1 8.40626018009723 1.5342864654711565 -11.288950938957344 0 0 0
1069 1 8.817473637183516 -2.171432153765437 -9.012178104392865 0 0 0
1657 1 12.884322989646824 -2.300839378268897 -13.49948175339757 -1 0 0
1153 1 9.328776369010535 -2.1589154038193783 -12.525685950201657 0 0 0
1137 1 12.992362343406915 -0.011033159579689311 -10.322338946095108 0 0 0
1654 1 11.383924419827254 1.2979656294537243 -11.506564544410015 -1 0 0
1054 1 11.5521876773067 -1.390046043664615 -11.814271199568125 0 0 0
1138 1 9.999209461552779 -0.28118920614129195 -10.346965906633613 0 0 0
1151 1 9.661372544451497 0.29213524614877606 -12.835868037459996 0 0 0
1655 1 12.871168835311119 0.3188893410860967 -12.920715399710092 -1 0 0
1243 1 10.018910651868287 2.6198491257967422 -9.997880815978382 0 0 0
107 1 11.351014542364387 1.729752118300235 -14.286911212350285 0 0 1
1055 1 11.715515984251537 -1.7185460687895038 -8.967476985289185 0 0 0
1241 1 12.896508203007654 2.7545567963032926 -10.154959863886202 0 0 0
1 1 11.150923349807387 -0.734713031443798 -14.214784805008778 0 0 1
1743 1 -11.422485392198718 3.2007570583664364 -13.047489723245526 0 0 0
1647 1 -8.543765462030313 3.19430212347965 -13.299197908051998 0 0 0
1740 1 -10.013318241785182 4.576141171494102 -11.713422847663665 0 0 0
1805 1 -8.517527646136909 5.90006776761607 -10.211683215507989 0 0 0
1806 1 -11.453740000492846 6.06243359521609 -12.876028581326715 0 0 0
1797 1 -10.156952263132482 7.484584809905668 -11.152164517879807 0 0 0
1799 1 -11.557329022878182 5.69624948485559 -9.945565923617426 0 0 0
1807 1 -12.872497284563082 4.421955978757039 -11.579314304368573 0 0 0
1803 1 -8.594880466992521 6.1171317827740435 -12.907363310475507 0 0 0
1345 1 -12.946375845728703 7.094924645607714 -11.212187702560957 1 0 0
258 1 -12.91394872369088 7.352936182318276 -14.158864170350817 0 0 1
1804 1 -10.146340638787468 7.545064398736171 -14.240351990866362 0 0 0
1808 1 -12.878791411684716 4.5891010307656845 -14.36203819870933 0 0 0
1638 1 -5.608494882043505 3.197703603981969 -10.615654542358465 0 0 0
1646 1 -5.517919555690815 3.399806803045193 -13.600466258929243 0 0 0
1730 1 -7.059797156853431 4.445575334847883 -11.894393334218854 0 0 0
1636 1 -4.213780776399146 4.745047324239083 -12.048802141010885 0 0 0
1728 1 -5.812275763574813 6.1473309053103105 -13.168413694176937 0 0 0
1729 1 -5.758463214411591 5.928787420865513 -10.3662696229771 0 0 0
1727 1 -2.836953900013409 6.30307357757003 -13.269783888155995 0 0 0
1796 1 -7.302953204030769 7.418050351461863 -11.417904260805274 0 0 0
1715 1 -4.376671996477004 7.462259592938855 -11.560281547902436 0 0 0
1621 1 -2.8251521942662094 6.045232377294527 -10.32225313073588 0 0 0
1511 1 -2.780883260069981 3.2737597533430165 -10.890242988391183 0 0 0
1635 1 -2.7152387777858724 3.426215716307661 -13.717954147144532 0 0 0
1623 1 -4.180709679567 4.502693084228282 -9.24401834233736 0 0 0
1731 1 -7.115838273247247 4.363598829610224 -9.03359137673138 0 0 0
59 1 -7.326663400480992 7.660287211864654 -14.32679492372937 0 0 1
1726 1 -4.2857650264112905 7.887324527342512 -14.333696712514849 0 0 0
1510 1 0.04883280404828838 3.3544614247350584 -10.998004647803937 0 0 0
1509 1 -1.3410028586882987 4.753892584847867 -12.16980031399149 0 0 0
1522 1 0.15594358723977741 3.6640008316284405 -13.79487915615512 0 0 0
1620 1 -0.02711976048039766 6.543987946735895 -13.494072885345819 0 0 0
1607 1 0.08825412532734411 6.268885904020026 -10.616624476676417 0 0 0
1377 1 1.5717903331498935 5.005686425735538 -12.32148828247811 0 0 0
1712 1 -1.5158592269850146 7.55852376463182 -11.663174331403516 0 0 0
1495 1 1.4875801753386568 4.826237996297943 -9.513020034236924 0 0 0
1618 1 2.867646291924798 6.6173979182514255 -13.671840852642097 0 0 0
1493 1 2.7474458558916393 6.525765963601051 -10.68211902624251 0 0 0
1622 1 -1.3881429037955186 4.594399511670813 -9.283878828447808 0 0 0
1605 1 1.2589510631908194 7.910332989441569 -11.88533912956806 0 0 0
1606 1 1.2458305033820487 7.674174391716031 -9.046253556960384 0 0 0
1379 1 3.045519464675669 3.518623309250083 -11.056969899499364 0 0 0
1508 1 3.009514478344146 3.816162450914396 -13.950784805995468 0 0 0
1390 1 4.396373358796586 5.040924413817086 -12.36833126366557 0 0 0
1376 1 5.953740411270667 3.5420870328357683 -11.400280725254529 0 0 0
1492 1 5.544080471669984 6.64536176435387 -10.87575181427283 0 0 0
1491 1 5.2100120154729535 7.170180662544945 -13.334180038130093 0 0 0
1361 1 6.988059732996403 5.619948637118577 -12.249274822613284 0 0 0
1494 1 4.333575247754522 4.98117707219488 -9.586147452630058 0 0 0
1362 1 7.0653230762670045 5.201216749312406 -9.684332436077273 0 0 0
1478 1 6.992208178350163 7.999588271198585 -9.323415859525934 0 0 0
1375 1 6.006700810937415 3.8007646680657903 -14.140499639119179 0 0 0
1374 1 8.218934646130725 4.570427978014456 -13.846358629113883 0 0 0
1244 1 8.490409130144448 4.123024008599545 -11.331948195871508 0 0 0
1476 1 8.574945412581377 6.951244028551445 -10.879335723448385 0 0 0
1490 1 8.659432891736857 7.116180269040855 -13.672467206254744 0 0 0
1479 1 4.1783865425932785 7.914989595386091 -9.107382875700868 0 0 0
1604 1 3.973432885519733 8.30316219778292 -11.64001813819233 0 0 0
1477 1 7.088847409195756 8.190913490242268 -12.22237157407388 0 0 0
1257 1 10.032881286929397 2.900726695989457 -12.773881826292827 0 0 0
1136 1 12.948130515293451 3.2345069620303466 -12.77914153166138 0 0 0
1801 1 13.07546747026157 5.663139510536341 -9.841705021240688 -1 0 0
1358 1 12.851847915536277 5.872201289411118 -12.629777235688477 0 0 0
1229 1 11.474018083060757 4.189228843058627 -11.294271745854422 0 0 0
1360 1 10.06097266878031 5.572348757569065 -12.583697317316476 0 0 0
1347 1 11.431374436730954 6.95938083162641 -11.005665250992292 0 0 0
1359 1 11.356325628872002 7.068521668967536 -13.891321093851044 0 0 0
1348 1 9.965204843131803 5.3010466646029695 -9.793005978052756 0 0 0
1464 1 9.995178275041328 8.163295846897794 -9.247346388266575 0 0 0
1335 1 12.780041068597582 8.33290339046908 -9.373006572555417 0 0 0
1242 1 11.603783427422341 4.316360195723531 -14.320945331534872 0 0 0
1843 1 -11.608986265496839 8.422394372543133 -9.465189000538892 0 0 0
1840 1 -8.79407191853719 8.74483356200251 -9.609487620878127 0 0 0
1848 1 -11.704397102619346 8.749479303353512 -12.507214388311963 0 0 0
1841 1 -10.315800424048692 10.16411421065571 -10.755666136563796 0 0 0
1846 1 -10.237205980998795 10.337014427414987 -13.754362717437923 0 0 0
1860 1 -10.446687334550948 13.000007591835795 -10.278011884185819 0 0 0
1865 1 -11.67388583463621 11.60912378252713 -12.049647897863863 0 0 0
1839 1 -9.056388650234933 11.786300471511717 -12.116675786452715 0 0 0
1795 1 -8.784635743336331 9.010864140157127 -12.666119571480072 0 0 0
1460 1 -13.174499867811072 9.94711809987106 -10.701450169041163 1 0 0
1847 1 -13.073980760472303 10.205203262629675 -13.736970901579133 0 0 0
1863 1 -10.440492720972905 13.257854182789584 -13.44602377619854 0 0 0
1830 1 -8.94966460117032 11.46854192960271 -9.227999930561968 0 0 0
1862 1 -11.94938146392288 11.388392049810045 -9.132812418788092 0 0 0
1861 1 -13.434696309593377 12.907799481254552 -10.368171615040934 0 0 0
1217 1 -13.258526979665554 12.888681555269644 -13.25115026811116 0 -1 0
43 1 -4.632939410533856 13.46571417329566 -13.628990892255358 0 -1 1
1837 1 -7.65509535360939 13.482368740421757 -13.400495121042324 0 0 0
1828 1 -7.745343667137498 13.2140761044195 -10.444414197426035 0 0 0
1825 1 -4.718457453309851 13.318182105122618 -10.78586463925906 0 0 0
1793 1 -7.357167003204408 10.616361234401515 -13.810224415798814 0 0 0
1838 1 -7.454707462112714 10.351467677514131 -10.937592584420234 0 0 0
1713 1 -3.0607506620863507 9.18011576641637 -12.785585188252647 0 0 0
1781 1 -4.5162493469129235 10.436562156446877 -11.104979358734912 0 0 0
1782 1 -3.145634008940524 8.918024970844412 -9.966894703668281 0 0 0
1783 1 -5.91737729312873 8.803295154034226 -9.90633911281855 0 0 0
1792 1 -4.636860694642577 10.790461500660383 -14.087527665437644 0 0 0
1794 1 -5.900207750522848 9.10973296966779 -12.563936587719207 0 0 0
1836 1 -6.291899569992044 12.079675834323227 -12.257100561141227 0 0 0
1779 1 -3.28024480352369 11.87228098156478 -12.379224282765133 0 0 0
1767 1 -3.2135951491344485 11.80573406710628 -9.48391408070971 0 0 0
1827 1 -6.146293040047788 11.79417921772101 -9.383282819159765 0 0 0
42 1 -1.9861164208698003 13.649629938191014 -13.551098826398505 0 -1 1
1764 1 0.9071569839816593 13.639105821658609 -10.938231259203363 0 0 0
1765 1 -1.8648216235715847 13.507146540297375 -10.753336391461172 0 0 0
1780 1 -1.6153581278017803 10.577863368098493 -11.256064499706964 0 0 0
1697 1 -0.14589064349614134 9.380684039203613 -12.95804589222835 0 0 0
1778 1 -0.29100532347416497 12.151891310892696 -12.561608782431563 0 0 0
1696 1 1.0960874157262257 10.93661824411746 -11.22554166290585 0 0 0
1698 1 -0.21064126960464158 9.163017731192513 -9.994305116288544 0 0 0
1695 1 2.5609293753880795 12.54234409947105 -12.643598374117278 0 0 0
1684 1 2.537434902031654 12.252732733690417 -9.716212424170099 0 0 0
1766 1 -0.44074441400651665 11.981230857244393 -9.591703204778057 0 0 0
1711 1 -1.6580458764957466 10.777701884585687 -14.166937579275691 0 0 0
1603 1 2.483440158001395 9.875339593216877 -12.605870924995644 0 0 0
1591 1 2.6347038844312234 9.444093737216951 -10.032773964890374 0 0 0
1710 1 1.2767833232611387 10.992723825364637 -14.23563866117862 0 0 0
1590 1 5.535333370272385 9.53571050388039 -10.369575513815034 0 0 0
1680 1 5.495871128816445 12.584527357070316 -12.720417656432973 0 0 0
1589 1 4.08829020252673 11.195141631119034 -11.27974500306936 0 0 0
1602 1 5.522158592235575 9.674557864765832 -13.169960993559108 0 0 0
1681 1 5.4938727156951845 12.460398531740955 -9.815905751973203 0 0 0
1588 1 6.9751974860157535 11.183000925519659 -11.536453174536895 0 0 0
1586 1 8.261199353719979 12.673357216971327 -10.086787826308125 0 0 0
1679 1 8.323813063903495 12.79370789988384 -12.910345253886392 0 0 0
1475 1 8.501182478500331 10.003600136173182 -13.35237035077738 0 0 0
1463 1 8.480591586098933 9.675683617274428 -10.558337953696338 0 0 0
1694 1 4.002209395428041 11.313013059874114 -14.28593564868451 0 0 0
66 1 3.4546013991133453 8.851263826480276 -14.219416419251324 0 0 1
1346 1 9.916399178587843 8.481729575592349 -12.202619617968882 0 0 0
1344 1 12.72644061065605 8.705390980945795 -12.47102573639423 0 0 0
1461 1 12.69342846690113 11.43612473359528 -11.974573932939201 0 0 0
1462 1 11.366984932851102 9.894036063321705 -10.669770090527727 0 0 0
1574 1 11.11067077541963 12.780578474029406 -10.174208668733886 0 0 0
1573 1 9.858869991618432 11.30604997513212 -11.887291972742144 0 0 0
1474 1 11.250377683631518 10.042994234173618 -13.569680860498035 0 0 0
944 1 11.210964558831668 12.972419484421922 -13.210362000395657 0 -1 0
1572 1 12.51531906291485 11.15568176510129 -9.101176718651406 0 0 0
1576 1 9.67707876888919 11.019881065957518 -9.012454052467966 0 0 0
1214 1 -9.19623826216739 -13.290883140231612 -8.745005360676386 0 0 0
1866 1 -12.081088024486467 -13.551780963047484 -8.617980535397791 0 1 0
1203 1 -9.394196036893348 -10.55296963992948 -8.299457611202609 0 0 0
1205 1 -10.765657731169224 -12.1525640321546 -7.105455312850884 0 0 0
1312 1 -9.327362380764093 -10.852127417115854 -5.420984215071176 0 0 0
1314 1 -10.543041952654665 -12.461501352270867 -4.305111934786778 0 0 0
1431 1 -10.864045708112474 -9.279343290796756 -6.552834907174934 0 0 0
1324 1 -12.345843164308963 -10.557324485115153 -8.039481141838449 0 0 0
950 1 -12.192247211419186 -11.08221118760903 -5.415898443003984 1 0 0
1300 1 -10.719178516199705 -9.692354678503536 -3.800098380653287 0 0 0
1206 1 -9.114069327833004 -13.861359128981425 -5.968031007763381 0 0 0
1315 1 -13.487995688217264 -12.718407072853624 -4.141736822611021 0 0 0
1207 1 -11.983055995264609 -13.763040713375181 -5.802002129593049 0 0 0
939 1 -13.57810279262826 -12.34311183976018 -6.96489468435755 1 0 0
1298 1 -8.050470551023128 -9.101345378575708 -6.62932187883923 0 0 0
1193 1 -7.593381746091268 -12.235299419017915 -4.401135490960355 0 0 0
1299 1 -7.852952544974723 -9.500956898842272 -3.8871777123685938 0 0 0
1204 1 -7.979315661064292 -12.046032996888034 -7.220469164286333 0 0 0
1189 1 -3.4911900468522017 -10.168589752333514 -8.64766830546268 0 0 0
1202 1 -6.459690698379138 -10.255687630751382 -8.409573584564257 0 0 0
1104 1 -4.920011054640458 -11.885780971336064 -7.343138495249801 0 0 0
1190 1 -3.419060847543454 -10.320036873369098 -5.7460310465985724 0 0 0
1191 1 -6.289546846752434 -10.613140901337545 -5.533343128693538 0 0 0
1094 1 -3.4105335963679533 -13.339121141016467 -6.301646676870686 0 0 0
1192 1 -4.758302360699059 -12.230525585886372 -4.636585810940838 0 0 0
1179 1 -4.918924465527509 -9.315215308837384 -4.126952244909122 0 0 0
1297 1 -4.993936925958312 -8.8699252330306 -6.833408604439483 0 0 0
1817 1 -6.394444601725839 -13.454574853695144 -6.032935567496413 0 1 0
1095 1 -3.198906149625577 -13.66033950851689 -3.5343154869189277 0 0 0
1090 1 -0.7485097764464772 -10.032564598022947 -8.82657843254955 0 0 0
1092 1 -1.997120402231058 -12.040824697322062 -4.847398951092048 0 0 0
1103 1 -1.9614707605079715 -11.68580356436259 -7.536606040857109 0 0 0
1027 1 0.7515348513986009 -11.40739668852222 -7.647726304911307 0 0 0
1078 1 2.2166419590364637 -10.07074205799509 -6.047618002075728 0 0 0
1176 1 -0.5888163761822796 -10.267189766481442 -5.889084264724785 0 0 0
1016 1 0.9422725447941254 -11.876837011533734 -4.837307690614274 0 0 0
1164 1 -2.0485538682897477 -9.074935335710293 -4.087260908745414 0 0 0
1029 1 -0.49027825895165833 -13.115066842390425 -6.432539124743231 0 0 0
1163 1 0.8471948451267792 -8.916579179888409 -4.277523995336052 0 0 0
1188 1 -2.1837485701812476 -8.738224603591968 -7.14852652016521 0 0 0
1174 1 0.7372281468844406 -8.686305155072278 -7.255385128607136 0 0 0
1028 1 2.3076522310966485 -12.953991187867638 -6.5259253062426135 0 0 0
1017 1 2.445677845418972 -13.337551517580394 -3.6275061641339104 0 0 0
1811 1 -0.37898350820934645 -13.563380604434615 -3.57733256911785 0 1 0
1003 1 2.3550460557090798 -10.364828753105202 -3.108469462117542 0 0 0
1011 1 7.865457756795861 -9.322070149329251 -8.727170648078843 0 0 0
1026 1 3.6698974976911867 -11.223308446659154 -7.7117040839460165 0 0 0
1001 1 5.001362071048222 -9.955577016924284 -6.234028501247021 0 0 0
1015 1 3.79812732499361 -11.639043791549433 -4.959567099295526 0 0 0
962 1 8.164515155670644 -12.689391494431812 -6.72737955594566 0 0 0
1013 1 6.598720198526186 -11.207758247097368 -7.72398886157291 0 0 0
1002 1 6.648915279431419 -11.580073255021262 -4.967335178121038 0 0 0
1000 1 7.8638593034388204 -9.722382340896676 -6.221866292496522 0 0 0
1670 1 5.235910713777505 -12.738999000803618 -6.6300329268369245 0 1 0
964 1 5.3754963977477015 -13.324054595688441 -3.7900908838001612 0 0 0
963 1 8.178896001364839 -13.025464169958942 -3.8638969589424583 0 0 0
1064 1 3.591537037511868 -8.909775961399026 -4.444179046639631 0 0 0
1063 1 6.392867443768283 -8.629268186486673 -4.540654690689289 0 0 0
1077 1 3.53364734819033 -8.54282646727639 -7.348407915208847 0 0 0
991 1 8.010175803283088 -10.202381289087741 -3.401759178292542 0 0 0
1075 1 6.283488802330195 -8.258002569700231 -7.260470200883735 0 0 0
1065 1 5.218711794480038 -10.379558947315074 -3.3475919534067895 0 0 0
957 1 13.470385907672915 -8.829734755840937 -8.84973270461104 0 0 0
958 1 10.701988571999623 -8.929118831539766 -8.564765218706473 0 0 0
946 1 13.669291984469139 -9.823467967812668 -3.622837659306457 0 0 0
949 1 13.588854908930648 -9.396228167486136 -6.247076879576413 0 0 0
940 1 11.051531557216345 -12.589557483905223 -6.856298660526638 0 0 0