LAMMPS data file via write_data, version 2 Aug 2023, timestep = 0, units = metal

1857 atoms
3 atom types

-14.208816164705434 14.208816164705434 xlo xhi
-14.085078213050274 14.085078213050274 ylo yhi
-13.652745547629388 13.652745547629388 zlo zhi

Masses

1 55.847
2 1.008
3 1.008

Atoms # atomic

38 1 -13.106990687773944 -13.314144832547505 -11.39271839798973 0 0 0
42 1 -11.848064603133032 -13.701463836502443 -13.389336712764626 0 0 0
48 1 -11.654419074481524 -11.353583296400727 -12.889707753395777 0 0 0
41 1 -14.003798029631657 -11.973844124055827 -13.244191878217693 0 0 0
116 1 -10.857001587663792 -12.853156949248401 -10.844310463352166 0 0 0
319 1 -9.566295365772401 -13.287518404655223 -12.916169758219784 0 0 1
50 1 -8.570164316295681 -12.393686239093714 -10.547922838297323 0 0 0
431 1 -7.047206377963894 -12.868255660448023 -12.429247141034734 0 0 1
432 1 -4.736583622947254 -12.158676692762304 -12.011136064687179 0 0 1
89 1 -4.03164631145072 -13.792390845351738 -10.378940071798509 0 0 0
142 1 -2.4257615059753643 -11.807367181196273 -11.784113530569675 0 0 0
1 1 -4.980566601402504 -2.549145157453113 -1.4702527036040713 0 0 0
30 1 -1.083597816037555 -2.4429756427595084 -3.082494492367932 0 0 0
40 1 -12.972857717761109 -11.006726784210834 -10.853672515907082 0 0 0
37 1 -13.762997921868187 -9.49794175263401 -12.717525596228661 0 0 0
69 1 -12.783776491896639 -8.605956160978202 -10.413951155535171 0 0 0
54 1 -11.344682817997802 -8.952887081600974 -12.394832323690554 0 0 0
45 1 -9.291873404646214 -10.799822650869348 -12.370182661898708 0 0 0
71 1 -10.715390679766463 -10.489287941295082 -10.419650255266985 0 0 0
84 1 -8.884211496765573 -8.436746588619975 -11.914337906246567 0 0 0
86 1 -6.839561489220658 -10.484905121120164 -11.946613663378441 0 0 0
139 1 -4.54848118317717 -9.823187114686935 -11.619551614258917 0 0 0
97 1 -3.09842790844203 -10.264830774888377 -13.571004146161297 0 0 0
141 1 -2.159906231450755 -9.596413741685577 -11.117058396674762 0 0 0
990 1 -0.6787615935700302 -9.881381536976306 -13.063872830549133 0 0 0
1075 1 -13.600085638286744 -7.072916313390792 -12.19614589159975 1 0 0
43 1 -11.260722798401268 -6.538721281823218 -11.786604726508369 0 0 0
82 1 -8.79551372099533 -6.088288939368444 -11.432828442620343 0 0 0
85 1 -6.549322536937287 -8.001284840984155 -11.342410167471849 0 0 0
252 1 -7.42572100041023 -6.5451024659981485 -13.329491610471363 0 0 1
96 1 -5.176933035624669 -8.378427734388783 -13.337319965027426 0 0 0
135 1 -4.252239920892695 -7.51352996325754 -10.842378080392978 0 0 0
93 1 -4.873920979837363 -5.969983408838184 -12.827177173541402 0 0 0
95 1 -2.85793852391806 -7.900117741885 -12.865703095688737 0 0 0
14 1 -0.5404065643774061 -7.470198951758238 -12.507888066737625 0 0 0
137 1 -1.8691570570022797 -7.0458611578199095 -10.616597380865194 0 0 0
239 1 -11.998566738175356 -5.123861326418199 -13.626440170495957 0 0 1
203 1 -13.350836038964054 -4.528793080047091 -11.632740593440571 0 0 0
402 1 -4.408617272140123 -6.37668711094891 -0.28925775707874735 0 0 0
56 1 -11.71442925191301 -2.784739535117877 -12.906767448657181 0 0 0
53 1 -9.583465227401913 -4.7406656480603235 -13.224715042950619 0 0 0
75 1 -10.991077012790619 -4.247820448606356 -11.25337307517859 0 0 0
80 1 -8.53787357831494 -3.9313661443297203 -10.641731769025492 0 0 0
83 1 -6.592014007439871 -5.686336472963722 -10.829513999976594 0 0 0
92 1 -7.1520961092866004 -4.173036101601834 -12.632840331639633 0 0 0
6 1 -4.752942831507351 -3.5528757466999856 -12.227728918959711 0 0 0
134 1 -4.1250387005612215 -5.133119595924173 -10.402538321878794 0 0 0
13 1 -2.569699541006381 -5.495659666203808 -12.329175958804324 0 0 0
988 1 -0.19162887937101836 -4.999575679753509 -11.871263624514778 0 0 0
12 1 -2.3207055560332144 -3.1483995252247503 -11.753448774525744 0 0 0
202 1 -13.749676209891275 -0.9327792818709852 -12.8689711568751 0 0 0
201 1 -13.166071843702609 -2.306683509959152 -10.915410876976456 0 0 0
200 1 -11.358887727575768 -0.416241155636488 -12.432140171764589 0 0 0
525 1 -4.623045492748277 -0.19553263784106178 -0.8569072969746934 0 0 0
4 1 -9.29584603787799 -2.331738127941577 -12.678907293491857 0 0 0
90 1 -10.667709985333524 -1.8872379909672166 -10.716408130706581 0 0 0
91 1 -6.920131225319019 -1.757919572184445 -12.095293338105124 0 0 0
7 1 -4.6333395491862746 -1.142653221216829 -11.602888498157403 0 0 0
414 1 -0.7548983558108837 -0.893101709883874 -13.077071609551924 0 0 1
15 1 -2.1018586249427926 -0.8125663698661167 -11.152115202937182 0 0 0
484 1 -8.78101204845542 -0.09797319172365704 -5.6096332700454425 0 0 0
546 1 -12.427158569611876 -12.424785457872359 -8.930998647970906 0 1 0
57 1 -13.773666559436824 -11.868446909019607 -6.891090736648349 0 0 0
59 1 -11.65907496526134 -13.866940069139476 -7.0332154358599155 0 0 0
115 1 -10.051064907627705 -11.970744749197799 -8.586435681019115 0 0 0
49 1 -6.246446849678699 -11.889072139154607 -10.032659008428075 0 0 0
591 1 -7.822091399895189 -13.888579766392125 -8.56331601358239 0 1 0
74 1 -7.5385295224352635 -11.51288692869944 -8.0859282262054 0 0 0
592 1 -5.510897338410526 -13.479354961620025 -8.318310674606941 0 1 0
125 1 -3.7947786802669228 -11.466029310260142 -9.759602808496684 0 0 0
172 1 -3.101428813330042 -13.020081417846583 -7.867547976674073 0 0 0
1142 1 -1.7159623231526133 -13.57664161215735 -10.063960809542444 0 0 0
1144 1 -0.6637275255580999 -12.608188029068657 -7.487757037020252 0 0 0
62 1 -12.167114259661219 -10.064645036193541 -8.507849113705536 0 0 0
114 1 -9.743242652966934 -9.527872354754557 -8.006893661619241 0 0 0
122 1 -8.351845152561793 -10.017843078230474 -9.998955468282997 0 0 0
169 1 -7.37610742029786 -9.10597736846961 -7.383351110144541 0 0 0
124 1 -6.021218384808154 -9.567079387431072 -9.495126892846935 0 0 0
171 1 -5.162892561392111 -11.083209052442701 -7.839219953058856 0 0 0
123 1 -3.4374041932202264 -8.961169839095874 -9.169050206717122 0 0 0
207 1 -4.997738389447296 -8.643073015160418 -7.167928087747301 0 0 0
170 1 -2.813941322358435 -10.554696237735682 -7.160057592391248 0 0 0
1146 1 -1.4009519373251091 -11.115483367472269 -9.176741609969723 0 0 0
180 1 -1.2573056596125074 -8.546902522596675 -8.726527352215848 0 0 0
216 1 -0.38671514363660187 -10.155117550273038 -6.862070286573381 0 0 0
112 1 -11.854745774857735 -7.71907186367982 -7.923771994167188 0 0 0
68 1 -12.711721515804706 -6.236304454093219 -9.711394425885576 0 0 0
110 1 -13.990884243778558 -5.9066986353976 -7.723774919550653 0 0 0
524 1 -3.3787344579077256 -0.6640046419243824 -2.8917069856441397 0 0 0
70 1 -10.40951516990974 -8.065426341063645 -9.96606027584864 0 0 0
113 1 -9.452667002887573 -7.184371040010079 -7.450243741130868 0 0 0
118 1 -10.366262084372856 -5.738931385172684 -9.311716642679198 0 0 0
120 1 -8.087851337230955 -7.667383629592792 -9.601413475939069 0 0 0
167 1 -7.183327877845888 -6.770588132242009 -7.039817158833311 0 0 0
121 1 -5.736743415447657 -7.173696961842281 -9.01363176357167 0 0 0
178 1 -3.344219683753229 -6.665715503830269 -8.414013064780935 0 0 0
179 1 -0.9865707787172369 -6.210595487984208 -8.084966198727614 0 0 0
136 1 -12.328360092996396 -3.82956882847966 -9.089430132353964 0 0 0
78 1 -13.76822341882693 -3.5320879085808112 -7.137557204684831 0 0 0
111 1 -11.619877756965801 -5.351754180363816 -7.213888105088148 0 0 0
66 1 -9.946823999572423 -3.3397341075526246 -8.795503555721787 0 0 0
133 1 -6.1392031570964924 -3.131307568856302 -10.188316777180543 0 0 0
119 1 -7.698222140597643 -5.264415628082681 -8.813203409645658 0 0 0
176 1 -5.483825285610212 -4.774517414993969 -8.31858157745069 0 0 0
132 1 -3.114277449966094 -4.330288301059873 -7.779704613384494 0 0 0
25 1 -1.611169750366816 -4.711658217832721 -9.895105505178238 0 0 0
177 1 -0.6624881643612781 -3.8063632359843815 -7.602104318483223 0 0 0
76 1 -11.868517127004042 -1.4568280952170483 -8.590730243735361 0 0 0
129 1 -9.699107100768178 -0.962340823925496 -8.096721765168354 0 0 0
131 1 -7.5568773983457085 -2.8986134172533387 -8.310322128477523 0 0 0
9 1 -8.376586080030666 -1.4610980562774927 -10.240300576183149 0 0 0
492 1 -7.32952917508019 -0.48720585993926413 -7.567064284472898 0 0 0
548 1 -6.0257211330878935 -0.8184855755360676 -9.668041180922168 0 0 0
11 1 -3.846106561934837 -2.7103856064594343 -9.727699128237166 0 0 0
10 1 -3.6092124376108075 -0.42537031227173117 -9.280781299574898 0 0 0
65 1 -5.3766466469649625 -2.3737634522821125 -7.748557952027559 0 0 0
21 1 -2.896146010927925 -1.9326243872361282 -7.294525849953571 0 0 0
23 1 -1.4379014013180047 -2.277736658483825 -9.291366074438741 0 0 0
22 1 -0.3645315560979139 -1.3179876488912186 -6.810207705570412 0 0 0
102 1 -12.923878926242336 -13.47831423412399 -4.998088726917773 0 0 0
108 1 -11.285499567135616 -11.48265100460272 -6.587012695243398 0 0 0
163 1 -9.224527163825982 -13.416681752217835 -6.576177198099173 0 0 0
103 1 -10.52671464798043 -13.015477201064169 -4.639072550291953 0 0 0
156 1 -8.089615085000148 -12.49133106225176 -4.250623561287329 0 0 0
117 1 -6.76885232808918 -12.95545916149368 -6.289347407308494 0 0 0
197 1 -5.762511735072559 -12.0383023472119 -3.804022284195696 0 0 0
98 1 -14.16129459370533 -10.653764236303644 -2.4167524175560047 0 0 0
164 1 -4.4260628500682415 -12.456174724658547 -5.865678969952277 0 0 0
47 1 -14.1690935473676 -2.1046163706257293 -2.7766454527164264 0 0 0
1110 1 -1.9581168531104112 -12.116532970905036 -5.251731541936961 0 0 0
101 1 -12.690957060497489 -11.235259720121553 -4.58331845765071 0 0 0
106 1 -13.613291158747034 -9.65592594228228 -6.340678660284369 0 0 0
153 1 -12.460993069090874 -8.924868042745029 -3.8525769896723183 0 0 0
109 1 -8.891129332330173 -10.996496707558052 -6.088183879254559 0 0 0
107 1 -11.169197376770844 -9.155921019240619 -5.937478677348521 0 0 0
155 1 -10.275280480396487 -10.665936514787067 -4.110426403586013 0 0 0
161 1 -8.819147397499103 -8.66747469944918 -5.4132658766093495 0 0 0
162 1 -6.729865433543287 -10.62882684413913 -5.649279137401768 0 0 0
154 1 -7.921763478658687 -10.086470690547909 -3.6202397451208945 0 0 0
209 1 -4.257758081894876 -10.08776662351629 -5.222459993308636 0 0 0
208 1 -1.8235672279151345 -9.675479221379403 -4.82840228374941 0 0 0
105 1 -13.225831441081537 -7.3935694394950895 -5.715918835853315 0 0 0
159 1 -10.86387337466713 -6.874418929118957 -5.333491852469688 0 0 0
152 1 -10.141955379549799 -8.217885459485984 -3.4074174467189042 0 0 0
158 1 -8.45816378113926 -6.257916661645572 -4.8965563142716935 0 0 0
160 1 -6.496771661746119 -8.292967625837555 -5.140362238982604 0 0 0
205 1 -6.021279451533875 -5.973017055687343 -4.5605068711232235 0 0 0
168 1 -4.71822326289287 -6.253354609450764 -6.575771924879959 0 0 0
206 1 -3.928248131911019 -7.727751121024259 -4.648794694286156 0 0 0
1088 1 -0.19625142771637272 -7.5207868515393015 -6.187327042488314 0 0 0
215 1 -2.5033207968327176 -8.0860027922806 -6.6539967921782255 0 0 0
230 1 -1.6177556273736489 -7.274188277461306 -4.18243414585204 0 0 0
213 1 -2.3702081066524343 -5.6734192936894505 -5.877893866619896 0 0 0
81 1 -13.064057298666397 -4.975061562664301 -5.296141493511968 0 0 0
77 1 -11.3451567622303 -3.0398984968995357 -6.672633978099924 0 0 0
165 1 -9.184979012055027 -4.79916169041636 -6.926287909160079 0 0 0
157 1 -10.660384958280442 -4.494062258385895 -4.7871435857617985 0 0 0
31 1 -8.171261466126873 -3.7777823188410427 -4.303942993012216 0 0 0
166 1 -6.881474117533081 -4.306808605614634 -6.2386875607689705 0 0 0
199 1 -5.88654924970894 -3.313845463652802 -3.94370610383643 0 0 0
204 1 -3.6402859655306496 -5.286098273749287 -3.9752820916756733 0 0 0
211 1 -4.4390917546852755 -4.023063004338864 -5.8802351826280415 0 0 0
227 1 -3.523649902694336 -2.86972653426945 -3.5125428665508505 0 0 0
175 1 -1.98278707389313 -3.3707327998638483 -5.47588888536257 0 0 0
212 1 -1.3104773796326814 -4.703351661154288 -3.5678361577826863 0 0 0
526 1 -2.57408050848057 -2.006439265314121 -1.0160277698632623 0 0 0
79 1 -13.547529844488887 -1.1098449805077415 -6.801899590566762 0 0 0
32 1 -12.815430196396102 -2.5369998859393004 -4.809957358745319 0 0 0
34 1 -12.63158607127054 -0.20184154554503664 -4.161449410381508 0 0 0
19 1 -11.128490350409198 -0.5299556600763449 -6.146798115102294 0 0 0
174 1 -8.909507196902425 -2.5010228074431886 -6.271193403714843 0 0 0
499 1 -10.388789591216709 -2.0695774981432784 -4.373030013882007 0 0 0
143 1 -13.243195296599275 -9.623340017825324 -0.17004060780183217 0 0 0
510 1 -6.5549110247730615 -1.9109868231579448 -5.8354032754025855 0 0 0
18 1 -8.125875553652298 -1.445055328504104 -3.852335595892887 0 0 0
511 1 -4.309925080800612 -1.4201887666909094 -5.348165353101612 0 0 0
27 1 -1.9636799276850976 -0.9807683966499159 -4.956270340828645 0 0 0
149 1 -12.04065584416274 -12.488914724744143 -2.6694207322411536 0 0 0
642 1 -13.287077905612017 -12.032074287184503 -0.6940030323028115 0 1 0
1857 1 -0.24806595443244817 -1.3082524114504661 -0.44431917285969114 0 0 0
148 1 -9.580483418492118 -12.128526363087609 -2.1875153633302826 0 0 0
643 1 -8.748402729002882 -13.57073726041811 -0.37463003522154814 0 1 0
144 1 -11.003219205051327 -11.652666855465753 -0.23111887761626448 0 0 0
1010 1 -0.016532768009259513 -2.6162511905028047 -11.423890072941214 0 0 0
188 1 -7.191957318110897 -11.725820474465552 -1.97996846911205 0 0 0
196 1 -3.420302632551092 -11.571157677179393 -3.2758818348106864 0 0 0
655 1 -5.067520537489806 -13.634998362694258 -1.8989210397241774 0 1 0
963 1 -1.3599311131295888 -13.604247009385203 -3.3976070809125236 0 0 0
220 1 -2.656588007303407 -13.056059462868264 -1.5100254435959144 0 0 0
221 1 -0.3404502403107248 -12.521109626010356 -0.9279194036453653 0 0 0
1077 1 -14.069674041199892 -3.2417667014580207 -13.449280023533968 1 0 0
3 1 -6.44488714528724 -4.5064659708513854 -0.08793178177547034 0 0 0
147 1 -11.784559036131515 -10.180126767372512 -1.906784124040584 0 0 0
186 1 -9.416307333558692 -9.740796902601156 -1.513483069438685 0 0 0
187 1 -7.0570271417053005 -9.233310186852492 -1.1531302294787125 0 0 0
195 1 -5.54065198401989 -9.735352346580132 -3.207785166170112 0 0 0
189 1 -4.788987358865507 -11.241083383871025 -1.2841022821192034 0 0 0
225 1 -3.2044541238028845 -9.226773946440575 -2.7742883343051457 0 0 0
218 1 -4.542987750772442 -8.76015811901538 -0.6635631600909075 0 0 0
653 1 -1.0421672736368954 -0.052475585141424475 -2.4249956087479365 0 0 0
226 1 -1.0332296641487204 -11.068166255041202 -2.840973911946108 0 0 0
219 1 -2.377166671678939 -10.655165239125559 -0.8452959361226924 0 0 0
965 1 -0.8881331281310221 -8.698692707396592 -2.32454204308471 0 0 0
151 1 -12.269140908953919 -6.430982348869189 -3.406887459579128 0 0 0
927 1 -13.864480924345525 -8.20339321440261 -1.9796671267384642 1 0 0
145 1 -13.678346960577286 -5.925005098331139 -1.3929338837483165 0 0 0
146 1 -11.649056867463136 -7.695709540700532 -1.5208737411103002 0 0 0
185 1 -9.104507775577673 -7.22652203909577 -1.005452187771974 0 0 0
191 1 -9.877549163687982 -5.933721416912684 -2.8476533157438446 0 0 0
193 1 -7.745139319113931 -7.767031279271896 -3.005818366261133 0 0 0
385 1 -6.6685117711386095 -6.932684584536329 -0.6567047721598414 0 0 0
1141 1 -0.051878368342709535 -11.730916747805752 -11.346456182285262 0 0 0
194 1 -5.281798787868304 -7.365930435409138 -2.7087195717369337 0 0 0
224 1 -2.8260807394368808 -6.855375990976461 -2.282937957000046 0 0 0
379 1 -2.199417473227557 -8.29964515648999 -0.2668394774173226 0 0 0
1137 1 -0.6027816194246469 -6.281149829847256 -1.6525134764595037 0 0 0
35 1 -12.034881313769034 -4.003191418285041 -2.8932947910715487 0 0 0
916 1 -13.422738728972213 -3.565674879061083 -0.883397513616158 1 0 0
51 1 -11.250617595261087 -5.399438508638639 -0.9223707144402784 0 0 0
16 1 -11.00692291485311 -3.036562737478002 -0.4265621722812174 0 0 0
33 1 -9.724103570738023 -3.5206017190681944 -2.4274973709170133 0 0 0
184 1 -8.780458076735464 -4.877636823125256 -0.4441109977331461 0 0 0
198 1 -3.796065249058209 -14.024179301700107 -4.0771926451894505 0 0 0
192 1 -7.3807616978264905 -5.445816825211441 -2.463155293115454 0 0 0
2 1 -7.369985088960888 -2.9105396686717704 -2.0132583039285326 0 0 0
223 1 -5.108112664124203 -4.913006282168226 -2.0853896222599992 0 0 0
229 1 -2.7057490752580264 -4.28881874751435 -1.6519336161381197 0 0 0
228 1 -0.3906915954975645 -3.843944210235696 -1.173780921645239 0 0 0
1701 1 -13.166338479773799 -1.1692361553358808 -0.330564827268498 1 0 0
494 1 -11.83047390001939 -1.5970045377841657 -2.3351607768159095 0 0 0
514 1 -9.432286610429184 -1.1455589527867982 -1.8107270672392577 0 0 0
515 1 -7.103005432166255 -0.616416112602808 -1.327663482531758 0 0 0
523 1 -5.740113466204814 -0.9492934382232256 -3.3948397636490046 0 0 0
599 1 -1.859018211900409 -13.975495054963133 -12.512417582541667 0 1 0
609 1 -11.149648951709652 -13.971148868471245 -0.7634379598853975 0 1 0
470 1 -12.780360227238777 -0.09279831071629197 -10.490171073321767 0 0 0
233 1 -3.070287621170424 -1.6907173579299801 -13.61215185154794 0 0 1
1695 1 -12.547598602955775 -13.543487691787535 1.303187434559792 1 1 0
1316 1 -13.950176747224477 -13.119986981449916 3.2245754106923936 1 0 0
729 1 -10.170927283453 -13.10517754350606 1.5676214948610152 0 1 0
183 1 -7.838986839144519 -12.514355019074596 2.1608760801486735 0 0 0
381 1 -7.107348574207097 -13.981054486378973 3.996575452299 0 0 0
376 1 -5.428625136961793 -12.022786902604842 2.6621579110344324 0 0 0
190 1 -4.047170510142838 -12.54313824354104 0.685875238373626 0 0 0
390 1 -3.109853887604098 -11.63801841032156 3.2169740404969165 0 0 0
377 1 -3.2632773543402074 -13.955678017455941 2.440830781591716 0 0 0
1322 1 -1.6301104914638884 -12.040525375706157 1.0229732538130243 0 0 0
701 1 -0.9103718879330209 -13.530144206623516 2.9587105715711264 0 1 0
321 1 -12.2582612409329 -11.17582181451389 1.7684868927440522 0 0 0
322 1 -12.096903833644676 -8.781944949450438 2.2902878445890895 0 0 0
374 1 -9.9528495253203 -10.680507635271578 2.281749069917417 0 0 0
181 1 -10.82368731526203 -9.198824558932895 0.2945686058908432 0 0 0
182 1 -8.529023026088863 -11.161377440248557 0.18818646584880838 0 0 0
330 1 -8.404007442260482 -8.832560228656643 0.7393937111938875 0 0 0
384 1 -6.150374630473719 -10.574756280878027 0.6653350050335565 0 0 0
382 1 -7.579951047645542 -10.138504509643006 2.723419487465618 0 0 0
378 1 -3.862879137608971 -10.320572691219972 1.2454201172981723 0 0 0
398 1 -5.173366278499165 -9.772528833934503 3.074897553978351 0 0 0
392 1 -1.393607486746042 -9.718173082909093 1.5383180602148645 0 0 0
336 1 -11.82314171326033 -6.499744113589778 2.981919529034231 0 0 0
324 1 -12.979606901889344 -7.265475597184058 0.5277396475593079 0 0 0
231 1 -5.614829990045374 -2.169036217950044 13.340259938043777 0 0 0
329 1 -9.745392893406322 -8.31470084493558 2.7669994174241825 0 0 0
331 1 -10.501764096430229 -6.824963003585351 0.9491884209891595 0 0 0
358 1 -9.504619074774457 -6.011491152844272 3.371227718502018 0 0 0
350 1 -6.020935084381982 -8.296255632955592 1.2717549833099895 0 0 0
332 1 -8.049341910353828 -6.33151995458929 1.3645495804698786 0 0 0
348 1 -7.393744937794477 -7.949289788616632 3.263957675651655 0 0 0
352 1 -5.668436284582407 -5.889688965373377 1.7559463171159795 0 0 0
400 1 -3.6467233271304913 -7.8359682044195225 1.6703369774860164 0 0 0
393 1 -1.2396670616032068 -7.3252372662688625 2.1572763075247696 0 0 0
403 1 -1.8937993346803346 -5.791909794454726 0.26224813090628096 0 0 0
337 1 -12.655641277647291 -4.976552622603052 1.090472944969223 0 0 0
340 1 -14.042295736657094 -4.556231095471473 3.0454356134279177 0 0 0
338 1 -10.312207807404846 -4.590652272564368 1.51747243228251 0 0 0
360 1 -7.853123003450808 -4.006693361922469 2.0255384334028523 0 0 0
351 1 -5.491398724816529 -3.518721187912412 2.4095286555847455 0 0 0
401 1 -3.422701674105948 -5.391742088757017 2.378335062929869 0 0 0
222 1 -4.090372999098504 -4.0003486846224785 0.4936677109151777 0 0 0
308 1 -3.140255957702422 -3.021406466504912 2.829605308187533 0 0 0
437 1 -0.9216182856324675 -4.807107995988195 2.905134616275033 0 0 0
306 1 -1.7937892586824216 -3.319645721811648 0.905449019605296 0 0 0
341 1 -12.453287125323882 -2.594867661139622 1.573586913442682 0 0 0
373 1 -12.139393553120989 -0.31075092002133964 2.277056809047725 0 0 0
368 1 -10.084744173394157 -2.296487609147121 2.181364579810163 0 0 0
17 1 -10.741733017505187 -0.6815341317468064 0.09236196456190449 0 0 0
232 1 -1.7388717885319718 -2.0311876474662345 11.63953103983271 0 0 0
245 1 -9.82235639771943 -7.0181584964282475 13.492251898858031 0 0 0
361 1 -7.789575279300174 -1.6682336020715773 2.5805382194050477 0 0 0
362 1 -6.238014752634809 -2.1652506538395446 0.5973257876299147 0 0 0
353 1 -3.974249115303758 -1.590101670853894 1.0055606792175134 0 0 0
295 1 -5.401027633676069 -1.1454859486772992 2.9548885281179285 0 0 0
1619 1 -1.5413244732756102 -0.8805434849944529 1.4427223226276649 0 0 0
325 1 -12.95114381592406 -12.31751294833562 5.894171240227136 0 0 0
320 1 -11.603551404691363 -12.824920279816093 3.6401760062541495 0 0 0
328 1 -9.259179523105399 -12.278853082406892 4.126110388308048 0 0 0
344 1 -10.648041822295353 -11.855073835442887 6.182600255516936 0 0 0
380 1 -8.489235422517805 -13.68200439463649 6.090273223185106 0 0 0
396 1 -6.848399841559003 -11.70614717540235 4.685852157750459 0 0 0
388 1 -6.130782767430805 -13.255171717725931 6.512188991887831 0 0 0
395 1 -8.253116800042779 -11.368779733949802 6.610805915760261 0 0 0
698 1 -4.698163171931306 -13.4957306299915 4.552000306132458 0 1 0
386 1 -2.261387382929364 -13.11966069044919 4.915508769795805 0 0 0
333 1 -13.713196261604436 -10.852097253979913 3.8922156585645507 0 0 0
334 1 -12.692915686270924 -9.868083612853425 6.252750096412425 0 0 0
327 1 -11.345966644015952 -10.565969207124184 4.2474087453592215 0 0 0
346 1 -8.994962396625802 -9.989436613250785 4.733255617427721 0 0 0
345 1 -10.175333547824298 -9.476792727206302 6.633587162522014 0 0 0
397 1 -6.559440679424198 -9.294021070479035 5.17487257951411 0 0 0
389 1 -4.388909038999429 -11.203232206008622 5.246031026319885 0 0 0
441 1 -4.196955434502351 -8.871336200888223 5.592190555088033 0 0 0
391 1 -2.7117079746392108 -9.18628766869285 3.5891949254250637 0 0 0
387 1 -0.744281749775844 -11.000983831734672 3.495014370804414 0 0 0
450 1 -2.0965168305783806 -10.668119777635926 5.568277332670364 0 0 0
448 1 -0.4519265600985154 -8.641274705983243 4.111867733210586 0 0 0
1370 1 -13.457040079157391 -8.443762305894525 4.432286238324886 1 0 0
364 1 -13.233217419778002 -6.092799497915665 4.875330414665031 0 0 0
355 1 -12.632278773528148 -7.534535373601412 6.724082725893597 0 0 0
356 1 -11.094291442283621 -8.058513609755991 4.8094227943362515 0 0 0
347 1 -8.869465299273891 -7.543287460596102 5.257703939466902 0 0 0
312 1 -6.474317472487849 -6.88024854144398 5.709474436826524 0 0 0
399 1 -5.038008828255387 -7.268004924937279 3.698715917703998 0 0 0
440 1 -4.043447411026998 -6.4790910779054025 6.183327910320328 0 0 0
449 1 -1.889320771269274 -8.286750896994018 6.081351620676925 0 0 0
447 1 -0.2525046767264918 -6.315874805476515 4.748521235716597 0 0 0
439 1 -2.6603112230599173 -6.75469140026522 4.110323121279633 0 0 0
417 1 -1.61860515998546 -5.937237401812611 6.739912451656673 0 0 0
366 1 -11.62602860289323 -4.115042678742098 3.48556484349327 0 0 0
365 1 -13.046284169675005 -3.7398945898578386 5.45390375795253 0 0 0
357 1 -10.835761202932355 -5.560771971403163 5.4363959514200015 0 0 0
359 1 -9.278666633205525 -3.711158060187012 3.9645532335216966 0 0 0
289 1 -10.680447768136158 -3.129557182189206 5.989355778476453 0 0 0
299 1 -8.451632044570548 -5.026712036610597 5.95558037716159 0 0 0
349 1 -7.151306597760496 -5.503229047372841 3.860003870239842 0 0 0
311 1 -6.137112237375327 -4.4860304265094335 6.332711308347696 0 0 0
297 1 -6.877316541199051 -3.131812437939681 4.388349781164445 0 0 0
310 1 -4.716140135421462 -4.918090248075323 4.377621642598717 0 0 0
275 1 -3.843914192331752 -4.01901619827945 6.743633081280953 0 0 0
438 1 -2.3707990318331724 -4.460021874468151 4.883440326135011 0 0 0
272 1 -0.5927631641131352 -0.0621562380331806 3.95596996274905 0 0 0
371 1 -13.81484194035111 -2.261414277537993 3.6506989943656105 0 0 0
285 1 -12.866248479868247 -1.299256702338278 5.995636103851362 0 0 0
367 1 -11.515643954061348 -1.8288826689266653 4.140853966025661 0 0 0
287 1 -9.128619609767242 -1.288537280705862 4.50174364409339 0 0 0
288 1 -10.474047882018288 -0.7526818128155028 6.496254161675269 0 0 0
298 1 -8.268362894358683 -2.6236322455008327 6.4548122672512545 0 0 0
296 1 -6.804025914117296 -0.8757478677801718 5.005241253798145 0 0 0
263 1 -6.037060101907828 -2.0779995498308583 6.917697282950575 0 0 0
309 1 -4.473525314143576 -2.5928293429692033 4.748979357706629 0 0 0
370 1 -8.37736806283922 -0.19436696019461763 0.7738970656185487 0 0 0
307 1 -2.9427674687648846 -0.6711314060357694 3.3813972178226184 0 0 0
436 1 -0.7625282500786223 -2.473304740509933 3.3632694950936948 0 0 0
273 1 -2.0609524203868954 -2.0106220675848405 5.412609909623987 0 0 0
343 1 -12.149381658052897 -13.88571566727118 7.65946314319252 0 0 0
342 1 -13.416765250886305 -13.268235320543116 9.532904299970022 0 0 0
354 1 -11.943166770524881 -11.44275857848765 8.118461183865803 0 0 0
318 1 -11.199334713204493 -12.82024732233982 10.107367617730697 0 0 0
394 1 -9.910816293208034 -13.268504432777089 8.02577368366711 0 0 0
445 1 -7.433846141462584 -12.822583732659208 8.537818818757563 0 0 0
249 1 -4.023308885899365 -2.6912656655854246 11.194849200194602 0 0 0
452 1 -3.7068333184812214 -12.714566551257647 7.00265542533578 0 0 0
453 1 -5.017120904384241 -12.335889910202553 8.951909782454772 0 0 0
429 1 -2.682120495352411 -11.652777250043208 9.32373688439946 0 0 0
1308 1 -0.47166594649197435 -13.576580543067536 9.376003809387333 0 0 0
454 1 -1.4066970741422278 -11.982133039977265 7.3924669660931155 0 0 0
303 1 -11.654123980609691 -9.009472206608507 8.69032038353866 0 0 0
305 1 -13.486324439499528 -10.83079586748914 10.09418105784514 0 0 0
339 1 -8.677284024494192 -2.541199070618653 0.1766152836802668 0 0 0
316 1 -9.676209065229003 -10.871194082888056 8.544618245874831 0 0 0
315 1 -9.35146605506915 -8.393275388099546 9.18138512828664 0 0 0
314 1 -7.831046594649556 -9.032114182494832 7.251798197003263 0 0 0
444 1 -7.283629505688953 -10.464563893115166 9.112275066891227 0 0 0
443 1 -5.85165900027825 -10.838950400747349 7.130436769414166 0 0 0
451 1 -3.5056519011035903 -10.219513178403245 7.509095481111379 0 0 0
421 1 -4.945579773955817 -9.804518470253958 9.511098077636829 0 0 0
433 1 -0.31354886007281735 -11.14695098048275 9.94674047264684 0 0 0
428 1 -2.458078021183111 -9.231426350454445 10.039012544756426 0 0 0
427 1 -0.8977612795033725 -9.714408400598682 7.964305620698662 0 0 0
292 1 -13.808211895221595 -7.046935081920903 8.668364999475981 0 0 0
302 1 -11.510324166527974 -6.613665558365022 9.273659855379767 0 0 0
301 1 -10.064516744374387 -7.042439771708026 7.287208402543895 0 0 0
267 1 -9.185649638937672 -6.088753625445676 9.70066906214227 0 0 0
279 1 -6.791509359187625 -7.854507340582784 9.592468161244492 0 0 0
313 1 -7.755607765251098 -6.553597873395825 7.738053422992403 0 0 0
442 1 -5.628332754771728 -8.399529782817723 7.55881920503524 0 0 0
277 1 -5.393033917081995 -5.983015705894909 8.308522357455141 0 0 0
419 1 -3.1665435630128567 -7.875335263719929 8.19993168097343 0 0 0
420 1 -4.5226248814796115 -7.341529278981656 10.143852742607317 0 0 0
426 1 -0.7171007866291372 -7.326995860140809 8.574958783434289 0 0 0
255 1 -13.668081249383109 -4.69609188820171 9.28813469117731 0 0 0
291 1 -12.33395137189797 -5.134911737389865 7.238233367306718 0 0 0
259 1 -11.313989902269718 -4.140561907395721 9.703994048492918 0 0 0
300 1 -9.864631794781179 -4.596144373180843 7.796144319673909 0 0 0
265 1 -7.539518871257439 -4.098679211833529 8.316184399144015 0 0 0
278 1 -6.716514743912464 -5.559498364392901 10.26655715778533 0 0 0
276 1 -5.15965502069845 -3.574826649710417 8.831600884727875 0 0 0
418 1 -3.0146405468988977 -5.402039013490379 8.585020110900095 0 0 0
248 1 -2.6659556351055294 -3.1454192889944395 9.169998482050095 0 0 0
411 1 -0.6556190439331324 -4.970569546591678 9.047147709269206 0 0 0
416 1 -1.4607600113422183 -3.4752760192794483 7.225274573471848 0 0 0
383 1 -6.438668232654591 -12.996072408767557 0.13778301012157712 0 0 0
290 1 -12.0327916728974 -2.655300427944603 7.874857375779383 0 0 0
254 1 -13.44922717295741 -2.347005154791157 9.953402170542036 0 0 0
253 1 -11.838390871660916 -0.3205493318904491 8.458015197145814 0 0 0
257 1 -9.62983454683731 -2.274683020395525 8.459751389924454 0 0 0
256 1 -8.141891910150296 -0.21718745392617222 7.12127758974828 0 0 0
264 1 -7.276027223494997 -1.7291014318314772 8.910470462753176 0 0 0
274 1 -3.749638670559051 -1.6937577505981896 7.3567938449947885 0 0 0
240 1 -5.08662691241301 -1.25611772517688 9.468060398929518 0 0 0
247 1 -2.6530013514126836 -0.6467971742619394 9.879729686746634 0 0 0
412 1 -0.42512884863037215 -2.548207844090939 9.670378380295057 0 0 0
246 1 -1.1255372746504264 -1.0331389477139794 7.843555988360835 0 0 0
271 1 -12.547084303504706 -12.343762436136245 12.027345315872905 0 0 0
446 1 -8.802115475822706 -12.298761020632293 10.542276727291002 0 0 0
283 1 -10.211460620646621 -11.824736000872955 12.446442064585161 0 0 0
423 1 -6.447737788842741 -11.769334050077894 11.0569708151611 0 0 0
425 1 -8.071413869993208 -13.638168489708269 12.486435923600633 0 0 0
688 1 -5.714094687068462 -13.217017760037317 12.871295767603941 0 1 0
424 1 -7.850824887990545 -11.274998693896826 13.063983145191072 0 0 0
455 1 -4.227338941466227 -13.670246508995811 10.914884384255343 0 0 0
435 1 -3.38373767495559 -12.787481995637073 13.210556169542583 0 0 0
430 1 -4.105135139145007 -11.227614598135776 11.273026438654378 0 0 0
55 1 -7.6548727263263805 -8.891937587473615 13.44693835497736 0 0 -1
434 1 -1.8245034227324162 -13.152544042233043 11.37591484111409 0 0 0
44 1 -12.470059477451878 -9.970735005515259 12.535301120128016 0 0 -1
304 1 -13.174485543760076 -8.474719326606262 10.615490365824057 0 0 0