LAMMPS data file via write_data, version 29 Sep 2021, timestep = 0

1868 atoms
3 atom types

-14.184665117186237 14.184665117186237 xlo xhi
-13.765764977402496 13.765764977402496 ylo yhi
-14.081197936627373 14.081197936627373 zlo zhi

Masses

1 55.847
2 1.008
3 1.008

Atoms # atomic

130 1 -12.838370341742586 -11.330272722708518 -12.748522073501121 0 0 0
128 1 -11.437285947620204 -13.593082389658782 -13.914663258168535 0 0 0
1217 1 -13.782229353395174 -13.571560730755891 -12.8602054447026 1 0 1
81 1 -11.35075308868498 -13.022615989038249 -11.509137945831831 0 0 0
52 1 -8.992496425676409 -12.877013723434008 -12.552973019597443 0 0 0
93 1 -10.600793862690722 -11.27818250649647 -13.755882658237342 0 0 0
94 1 -10.313762500146016 -10.744380404249108 -11.390466430318602 0 0 0
320 1 -6.764580624081264 -12.694114900316409 -13.715214169261763 0 0 1
288 1 -8.134823045622852 -10.488733404641359 -12.460327686498289 0 0 1
30 1 -5.851306338205916 -10.464059759677049 -13.486239104921294 0 0 0
53 1 -6.517828869671669 -12.002000953723583 -11.38319125214976 0 0 0
595 1 -4.333132299018093 -12.099587833904488 -12.362572726332964 0 1 0
39 1 -2.158121242257689 -11.982578394593984 -13.462168288036342 0 0 0
175 1 -0.6548294747735763 -13.564320377495577 -12.210692060918824 0 0 0
129 1 -11.84656887058388 -9.132951061934452 -12.660968692760722 0 0 0
158 1 -13.454696211565045 -7.390533357786596 -13.729887484265639 0 0 0
25 1 -0.7936697145158753 -3.0270394728055496 -2.5804643363696176 0 0 0
138 1 -9.618821757354764 -8.942335746192612 -13.729629548735709 0 0 0
104 1 -7.240410085729065 -8.23566460882212 -12.295038366455184 0 0 0
66 1 -3.503485409081481 -9.747084416513882 -12.373191180904708 0 0 0
232 1 -4.9641494483349025 -8.167173792270852 -13.370225237651889 0 0 1
75 1 -2.5123342592453266 -7.487125101472091 -12.01953045069189 0 0 0
38 1 -1.3573164094642198 -9.667466890205294 -13.321072305828421 0 0 0
1158 1 -0.3667150094534719 -7.382452304707931 -13.108137419303846 0 0 0
152 1 -13.182761779003595 -6.881110726691367 -11.355313255969152 0 0 0
159 1 -12.471195412394717 -5.20550539960089 -13.67436477008501 0 0 0
290 1 -11.010857561378806 -6.800131427568873 -12.471877567770457 0 0 1
161 1 -10.142552788211226 -4.579389934165295 -12.171472139454814 0 0 0
139 1 -8.76095066505947 -6.640335108708441 -13.526044045670414 0 0 0
105 1 -7.8737158549946145 -4.330660784948284 -13.38048898459877 0 0 0
106 1 -6.309435025111104 -5.94261986014406 -12.234313646752353 0 0 0
113 1 -5.305842657336699 -3.712051860988973 -11.971713268798247 0 0 0
76 1 -4.007030472777863 -5.822930819161482 -13.186047149435032 0 0 0
109 1 -3.2144327820465417 -3.5035164702382477 -13.081595226080003 0 0 0
34 1 -1.5723928275885477 -5.129351625737755 -11.870886180412928 0 0 0
162 1 -12.901922488539142 -0.6645428023099758 -12.147169518547518 0 0 0
291 1 -11.74132521397932 -2.9354325647111335 -13.328104237184592 0 0 1
1043 1 -13.805199355417395 -2.9735035225729565 -12.324067632416071 1 0 0
312 1 -9.284688017897297 -2.2714336762924354 -12.14875715034942 0 0 1
164 1 -10.774571128521002 -0.5266971668787228 -13.330779878748018 0 0 0
242 1 -6.921825172248476 -2.114405135948237 -13.237408390950751 0 0 1
14 1 -0.3532031259724988 -1.5502328845264977 -4.776505351178368 0 0 0
67 1 -4.594866937799196 -1.5087459408715187 -11.899733003810748 0 0 0
114 1 -2.239943844517999 -1.2860170385792333 -12.999605940067 0 0 0
41 1 -0.748567238436852 -2.770264620359093 -11.666889234115862 0 0 0
1150 1 -0.1279222848194106 -6.891586193281736 -10.685596157335947 0 0 0
997 1 -13.51339722542496 -13.128753670733685 -10.467507008358952 1 0 0
83 1 -12.501901590922298 -10.81042534879615 -10.387638671031233 0 0 0
630 1 -11.105356560806907 -12.514467923101877 -9.213299873551673 0 1 0
82 1 -8.71177970577043 -12.198612605555361 -10.167991753193398 0 0 0
42 1 -6.35825754737076 -11.460480761138541 -8.88865022454792 0 0 0
18 1 -4.343081196589216 -11.34758415810267 -10.036372960160303 0 0 0
998 1 -14.054846511434585 -9.153042631364524 -11.541085805560465 1 0 0
561 1 -2.558821318135543 -13.142254550818635 -8.78321640334254 0 1 0
172 1 -2.101190173217077 -11.431457822457734 -11.111249605942398 0 0 0
1109 1 -0.413336897633064 -13.001145587285865 -9.892867512992131 0 0 0
7 1 -1.6472407810075254 -10.723262239332968 -8.652739084741562 0 0 0
131 1 -11.620310048235062 -8.481356814489205 -10.139463572916464 0 0 0
119 1 -13.8111996567152 -8.610373916744663 -9.082328757396963 0 0 0
95 1 -9.43175659723672 -8.461949045757539 -11.362021247482131 0 0 0
85 1 -10.050795930494822 -10.077859255072312 -9.096826205159537 0 0 0
133 1 -9.310362858603456 -7.819542937080551 -9.085794368772747 0 0 0
96 1 -7.898540648862466 -9.98194659304502 -10.064857406129255 0 0 0
56 1 -7.046737920467803 -7.700780736172919 -10.02756101474612 0 0 0
54 1 -5.699752384045993 -9.711532689466164 -11.266822709044819 0 0 0
64 1 -4.768883613129557 -7.502936979332869 -11.03440572471498 0 0 0
55 1 -5.373605589906543 -9.282072619405358 -8.763762357811263 0 0 0
20 1 -3.1412987073826173 -9.214690542562678 -9.96121821592482 0 0 0
101 1 -4.404397137607189 -6.925009763373019 -8.592442654800362 0 0 0
31 1 -1.023246524891288 -9.227717701676436 -11.022568527848804 0 0 0
1104 1 -0.8168764892425884 -8.470911993404243 -8.496660338760243 0 0 0
1042 1 -12.366424504041014 -4.627096349999125 -11.26488310485303 1 0 0
121 1 -12.985887063532518 -6.24290461307609 -8.921075517116815 0 0 0
153 1 -12.046003329181536 -4.039980483346024 -8.908229819892355 0 0 0
132 1 -10.80472528525303 -6.170028647818504 -10.219130401090247 0 0 0
143 1 -9.865196777622934 -3.9620686929922933 -9.942381934383063 0 0 0
97 1 -8.458151678667985 -6.015516266905872 -11.175470337125546 0 0 0
99 1 -8.31842840630189 -5.562722466402612 -8.801695458229759 0 0 0
108 1 -7.645611423344316 -3.80465256812934 -10.934898516565966 0 0 0
58 1 -6.086021282198702 -5.435429190550646 -9.816978844813839 0 0 0
69 1 -3.7958483971056136 -5.265855743078511 -10.663523933106369 0 0 0
1040 1 -14.18082982833026 -4.108851270406749 -7.802559299829038 1 0 0
1142 1 -2.1916815078613627 -6.788076481639463 -9.608164882978013 0 0 0
1039 1 -13.651439789952267 -2.2226297836084985 -9.9449342360647 1 0 0
142 1 -11.495863745946494 -2.3736533693702047 -10.924575883462143 0 0 0
51 1 -4.3559517365599145 -0.8744573004923257 -0.13158886759794441 0 0 0
155 1 -11.183196952808817 -1.6836035670859157 -8.626716189081446 0 0 0
163 1 -9.055054766939872 -1.7144425682995923 -9.808968289669535 0 0 0
222 1 -3.0311291219078065 -2.95060431849676 -1.3710445995922473 0 0 0
111 1 -6.7560767029712805 -1.519953634480805 -10.830820925675589 0 0 0
110 1 -7.544640499573641 -3.107997344819223 -8.708485671993657 0 0 0
71 1 -5.26674072148934 -3.172965733607226 -9.632756559744957 0 0 0
73 1 -4.19510581893433 -0.9333117235390826 -9.412694146106698 0 0 0
77 1 -2.952250401919761 -3.102926918161412 -10.632426835370218 0 0 0
36 1 -0.6549915387198268 -2.9261806259144834 -8.839436658731476 0 0 0
79 1 -1.9247634825680908 -0.9318598560063016 -10.519138898224279 0 0 0
118 1 -13.175593871576961 -12.4998373169571 -8.140801458442452 0 0 0
188 1 -12.958659866152775 -11.904205950119717 -5.752414178964601 0 0 0
626 1 -10.797192969255889 -11.803665522057681 -6.860651662674879 0 1 0
217 1 -8.553239761345285 -11.618613003872628 -7.853575434657509 0 0 0
587 1 -9.153422928940447 -13.329805033193066 -5.57489505213694 0 1 0
43 1 -5.9503989945579505 -11.003574149009003 -6.538813796896367 0 0 0
588 1 -6.98620890801046 -13.261409279420528 -6.732678744629419 0 1 0
166 1 -4.747675605250899 -13.119607925588877 -7.811538524836273 0 0 0
21 1 -3.791938864224841 -10.941824390061594 -7.638766554679271 0 0 0
1141 1 -0.2915047262753063 -12.520231552307694 -7.561889755872992 0 0 0
6 1 -2.506283784845822 -12.574690059507112 -6.503244104790097 0 0 0
202 1 -12.249512987047709 -10.179865867952175 -7.938939677577911 0 0 0
996 1 -13.560043761146247 -7.946703416566485 -6.692760713950446 1 0 0
120 1 -11.39903911964405 -7.983718713697791 -7.82451262925251 0 0 0
186 1 -12.072188143931847 -9.616586316873917 -5.51633548709213 0 0 0
84 1 -9.909664480527764 -9.565431520662953 -6.7265519995201695 0 0 0
86 1 -8.86571085747402 -7.367067341641144 -6.591979709400715 0 0 0
44 1 -7.604042774255213 -9.312371171875956 -7.7763227630420415 0 0 0
98 1 -6.6763742425113 -7.103434064959063 -7.716216340525612 0 0 0
11 1 -5.093546651900915 -8.684733117514703 -6.414500907388073 0 0 0
100 1 -2.950688158969408 -8.502499438698894 -7.413501516189771 0 0 0
22 1 -1.6480406867039576 -10.170354987889102 -6.241295711139436 0 0 0
33 1 -0.6149021665496122 -7.783694829088497 -6.162792417061507 0 0 0
185 1 -12.710944949125018 -5.631224425626682 -6.557071243577447 0 0 0
123 1 -10.433939922117828 -5.709899548019694 -7.711749998861059 0 0 0
134 1 -9.639858495107259 -3.4279825675783453 -7.494398132481092 0 0 0
87 1 -8.051489328202013 -4.923419001438896 -6.334350547522065 0 0 0
60 1 -5.922079536778988 -4.833555762235985 -7.5694882192799415 0 0 0
59 1 -3.9921795160873543 -6.09992919914084 -6.339716234110129 0 0 0
35 1 -3.0904710592925912 -4.480214553236877 -8.124087910673492 0 0 0
1152 1 -0.30100945838598037 -5.779862862462223 -7.950786297827884 0 0 0
149 1 -11.854439860109892 -3.4621730686697223 -6.417987941013058 0 0 0
948 1 -13.519182050216026 -1.8009926012556718 -7.653768647686838 1 0 0
125 1 -10.980036433447347 -1.1647162394226847 -6.27744500876947 0 0 0
136 1 -8.674288369309247 -1.056591794811652 -7.617395347367713 0 0 0
112 1 -6.443756818620717 -0.7879162301252176 -8.611328024679745 0 0 0
647 1 -6.09832093337705 -0.44587687258054487 -6.211438505453241 0 0 0
102 1 -7.173574400852062 -2.6096348655161083 -6.252107739247652 0 0 0
62 1 -4.015224736891231 -0.4091012824926139 -7.075296129158829 0 0 0
24 1 -4.919208800466272 -2.689054016364791 -7.250153333980594 0 0 0
72 1 -1.8040989454258831 -0.5346392773626398 -8.159111859204298 0 0 0
70 1 -2.1623776534515535 -2.4982590315926885 -6.3809689627378 0 0 0
207 1 -12.8877996113627 -11.337818425664304 -3.298428208085948 0 0 0
574 1 -11.419925640452785 -13.53617911280921 -4.472969647560534 0 1 0
601 1 -13.774587335187991 -13.521486488772249 -3.455970348925133 0 1 0
201 1 -10.607963928614842 -11.184965131769868 -4.4649197043923134 0 0 0
221 1 -8.838447716968474 -12.874826833896552 -3.2661070551983205 0 0 0
216 1 -8.181036499205877 -11.156011928422062 -5.557189591348489 0 0 0
231 1 -6.735797170719724 -12.735436370157426 -4.262581271861761 0 0 0
214 1 -8.08931633840091 -10.595877197844834 -3.2549257398723235 0 0 0
226 1 -5.922473753884935 -10.424332762674705 -4.184788295642409 0 0 0
8 1 -4.5506735832229825 -12.709853809612994 -5.422795459984693 0 0 0
513 1 -4.375074666191233 -12.100873850100884 -2.881688793082251 0 1 0
227 1 -3.7120755883030245 -10.311989253179847 -5.07224033787527 0 0 0
167 1 -2.150978989893998 -11.91544064767377 -4.072919010739556 0 0 0
990 1 -14.071209201657915 -3.5589009983254574 -5.522364667710155 1 0 0
939 1 -0.6679672332711846 -13.562749685962762 -2.9049824118639638 0 0 0
205 1 -11.85437642961997 -9.062268364303712 -3.2587458958265394 0 0 0
184 1 -13.3974313940735 -7.401143203104062 -4.3973222351354 0 0 0
200 1 -11.100422352594766 -7.365543126318564 -5.483164316421453 0 0 0
215 1 -9.654096213213613 -9.025262353373058 -4.297020951541146 0 0 0
45 1 -7.407508286222684 -8.820265023939916 -5.397393676525017 0 0 0
47 1 -7.416689205418104 -8.250455870011232 -3.0571959936280777 0 0 0
9 1 -5.121998393399192 -8.164057659121685 -3.9942799937643727 0 0 0
4 1 -3.4378692424692403 -9.742157229511918 -2.7417551677349543 0 0 0
23 1 -2.8017300661797737 -7.901552264183111 -5.086500645959456 0 0 0
169 1 -1.2400709889715085 -9.654939533947193 -3.892321767478119 0 0 0
68 1 -0.45528124572224726 -7.384377801688565 -3.8308256626149895 0 0 0
183 1 -12.438706797618224 -5.03389342002818 -4.270525601309684 0 0 0
198 1 -10.940190346127192 -6.759470782192667 -3.1429526447288527 0 0 0
122 1 -10.210531274039177 -5.034680194522675 -5.291820086621545 0 0 0
213 1 -8.792526857189763 -6.645424527427138 -4.204950701418605 0 0 0
196 1 -10.03634998804193 -4.426111716472976 -2.9232628192857053 0 0 0
46 1 -6.306272674246977 -6.368110410690207 -5.207487588207817 0 0 0
88 1 -7.79556960312984 -4.401562588430819 -3.856522057550926 0 0 0
211 1 -6.363086416379063 -6.035514459503925 -2.728133681131883 0 0 0
48 1 -5.576789756521077 -4.087648245472094 -5.062945975715504 0 0 0
49 1 -4.02342585000417 -5.9599868842241595 -3.832515531536684 0 0 0
1145 1 -3.0266729124850524 -3.6531340386705935 -4.034543329732136 0 0 0
956 1 -1.661095762408495 -5.352630874674757 -5.727952908712581 0 0 0
17 1 -2.2022618872849247 -0.7352456050886822 -1.2593074431154712 0 0 0
150 1 -13.208464893758812 -1.1656968729363868 -5.3170182972082785 0 0 0
181 1 -13.769966778646863 -2.9261415543314016 -3.1994312897475066 0 0 0
124 1 -11.563924637051235 -2.63764545067105 -4.154498708028667 0 0 0
135 1 -9.3360210679493 -2.7634737097508904 -5.2451566341538385 0 0 0
658 1 -10.579993170833644 -0.4121201501433376 -3.9677199111552657 0 0 0
137 1 -8.450214228831515 -0.48391257743179317 -5.226137060205044 0 0 0
89 1 -6.889938581732686 -2.0386896252636664 -3.9016891453360323 0 0 0
61 1 -4.5150276959026865 -1.855187480058028 -4.899951196434618 0 0 0
1138 1 -2.4199905108868798 -1.3143825244104441 -3.6811235127396564 0 0 0
209 1 -5.267464961657808 -3.023804178858331 -0.3099917257335427 0 0 0
208 1 -13.58209806021962 -13.049462526668746 -1.114562044896827 0 0 0
191 1 -12.709834714383462 -10.758072033356923 -0.9817655251097257 0 0 0
442 1 -11.336163346662662 -12.921943495952664 -2.145884058609637 0 0 0
219 1 -10.494797268984383 -10.510396668454282 -2.059146884593737 0 0 0
220 1 -8.878398449925555 -12.309183442293564 -0.8614951403401427 0 0 0
575 1 -6.615240331212865 -12.089447058955939 -1.8588688537134708 0 1 0
27 1 -4.315252741276884 -11.541047691633507 -0.49453975580235543 0 0 0
636 1 -4.72043661571635 -1.4100809827946623 -2.563196701501621 0 0 0
506 1 -0.4418456070801966 -13.08018252217377 -0.5826416924577682 0 1 0
5 1 -2.080180752675826 -11.426402161056641 -1.7527610602246249 0 0 0
189 1 -11.546625875436499 -8.57059507236632 -0.8006168770400794 0 0 0
199 1 -9.510394565952444 -8.28861674207817 -1.9143376193851598 0 0 0
218 1 -7.8227148365462105 -10.007179236826968 -0.8127431243795993 0 0 0
212 1 -7.0621188656800165 -7.680386161992907 -0.6603538021467141 0 0 0
230 1 -5.659858137462493 -9.863030831200279 -1.8034462250409753 0 0 0
224 1 -3.2389265927312696 -9.241173067569736 -0.48941309622419915 0 0 0
223 1 -4.828465245450747 -7.595101287843314 -1.5342499325971986 0 0 0
225 1 -2.4991195941168254 -7.663398118496078 -2.5626490518212943 0 0 0
1137 1 -0.8396045753442234 -9.20385179270706 -1.4782233065064823 0 0 0
12 1 -2.438176124845924 -6.967746368046494 -0.27439134156549194 0 0 0
192 1 -13.144066049736248 -6.750004988310371 -2.075803078510356 0 0 0
182 1 -12.33126557854275 -4.678970984972022 -1.913254035420234 0 0 0
204 1 -10.750863748282011 -6.262385167261339 -0.6569787233390478 0 0 0
400 1 -9.978495359739055 -3.8318473486746445 -0.624301691512235 0 0 0
197 1 -8.609746943714383 -6.121952627938625 -1.7475866677147192 0 0 0
466 1 -6.1504772788249635 -5.390798904386553 -0.3510689502181723 0 0 0
90 1 -7.684227749998413 -3.8725697185945975 -1.472220400143085 0 0 0
50 1 -5.473479615276698 -3.7597980204868815 -2.5811287028007577 0 0 0
936 1 -3.868350501289754 -5.191777292748503 -1.5501913996763985 0 0 0
171 1 -2.9766407491862807 -13.717985193825863 -11.193977877080755 0 0 0
15 1 -1.754850436732367 -5.337757166932239 -2.9106129242604144 0 0 0
1 1 -1.4182671062142198 -4.81328983239249 -0.3963786540319614 0 0 0
180 1 -12.953433904877448 -0.5504191407192476 -2.952313393645701 0 0 0
177 1 -13.550982091358112 -2.3915038250508207 -0.6442672437392876 0 0 0
1136 1 -0.15885100511803785 -6.880420463771412 -1.5339200732125366 0 0 0
126 1 -9.114650877508762 -2.0984794309174166 -2.9293110599923473 0 0 0
389 1 -11.310941371226182 -2.198868554855215 -1.7893097413283474 0 0 0
194 1 -8.93325023294777 -1.622708681200006 -0.4313565936930406 0 0 0
16 1 -0.5866888566176023 -2.46569659007716 -0.23950578359910324 0 0 0
92 1 -6.841318359727605 -1.477196413431674 -1.5001739982850548 0 0 0
193 1 -13.98159482467742 -8.982377401123228 -2.150402361238692 0 0 0
551 1 -12.747095193243627 -0.062396861910468004 -0.5339399402577563 0 0 0
955 1 -0.017840198211278135 -0.705231165370801 -2.424289851377887 0 0 0
144 1 -10.54640047977573 -0.14782124540130503 -10.854529632417236 0 0 0
168 1 -0.022682842796406533 -11.95737715390785 -5.1608037558193285 0 0 0
593 1 -5.093993239874834 -13.627941556439971 -10.10477346407676 0 1 0
154 1 -12.697415639588879 -0.11744845390179215 -9.96661578735131 0 0 0
244 1 -0.8016919156132243 -3.3885775566500023 -14.075326894454712 0 0 1
411 1 -13.216709976446746 -12.483799013863079 1.3315892663038547 0 0 0
409 1 -10.822925311081178 -11.772778651007332 2.661838108631155 0 0 0
449 1 -11.023399500133548 -12.338449342939752 0.20522735467212172 0 0 0
417 1 -8.520338793209827 -11.698609050883384 1.4507214694918371 0 0 0
453 1 -6.441284548671324 -11.630374007827367 0.47600623218759175 0 0 0
447 1 -6.283398417105484 -11.043291843463077 2.870317240313298 0 0 0
446 1 -4.004181345314535 -10.850001724631591 1.8142978319856677 0 0 0
415 1 -4.902667958027667 -13.146087066644444 1.680584549673215 0 0 0
451 1 -2.707348934008186 -13.058093951827473 0.49766215835553673 0 0 0
464 1 -1.6754794557910468 -10.766515440241033 0.7655988315436364 0 0 0
1203 1 -0.26844360948429724 -12.4565692243336 1.8739413448991247 0 0 0
441 1 -12.28069783498725 -10.140969265832265 1.2298744193446964 0 0 0
967 1 -13.959990272051298 -8.63771260754454 0.2608138255605894 1 0 0
369 1 -13.70134699397762 -7.992751726657846 2.539779969082055 0 0 0
368 1 -11.456358959003683 -7.822485452360515 1.6599005286039166 0 0 0
448 1 -10.05160546611148 -10.012915179242203 0.305153926954004 0 0 0
459 1 -9.239918228792702 -7.767334322029847 0.5157948104689964 0 0 0
440 1 -9.870888294841341 -9.445536821400717 2.668234136300576 0 0 0
439 1 -7.666521113634063 -9.342994136338092 1.5788158615064916 0 0 0
458 1 -6.8553436419882035 -7.074664257867134 1.861576526004546 0 0 0
463 1 -5.460626713156175 -9.188386589245923 0.6659821875998162 0 0 0
462 1 -3.1062920626477855 -8.613463149500618 1.9828844397446304 0 0 0
457 1 -4.6401619760193835 -6.936806651089678 0.7571109295587579 0 0 0
461 1 -1.0214477125139059 -8.498305418105033 0.8773484907353115 0 0 0
195 1 -12.201026911786347 -4.05572743365834 0.45539117215233915 0 0 0
190 1 -13.01684069316036 -6.443255418788583 0.37641544123488124 0 0 0
390 1 -10.495927069181114 -5.590836615101127 1.6891460588339733 0 0 0
210 1 -8.348258074269443 -5.4499128046135255 0.49219770503229476 0 0 0
387 1 -5.9500022810258315 -4.736474377346747 2.032682222000176 0 0 0
2 1 -3.6681386974180246 -4.755824320674128 0.888863320547129 0 0 0
455 1 -2.009330225657294 -6.394814257118544 2.0168937913656144 0 0 0
465 1 -1.2615822692432435 -4.128677029892417 2.1947247902675286 0 0 0
375 1 -13.342555207328164 -1.8263675688614125 1.7665785625970063 0 0 0
381 1 -9.644260019646875 -3.3444315889765353 1.8419359042656271 0 0 0
396 1 -11.161055157742483 -1.7434057323188874 0.7110693801867871 0 0 0
394 1 -8.828362458361674 -0.9647066236932176 2.0102652096004547 0 0 0
761 1 -7.3745236765122595 -3.1510432268739184 0.8857070995866394 0 0 0
760 1 -6.484598706432963 -0.9811570730165009 0.9935351217904724 0 0 0
399 1 -4.982496527263095 -2.5538126847244698 2.110923952595879 0 0 0
398 1 -2.605451286273089 -2.5383648207661196 1.035622231531999 0 0 0
266 1 -0.23449218329163912 -1.8373099660314693 2.3185784804385534 0 0 0
401 1 -1.9223743346725701 -0.286124887497067 1.071172239118372 0 0 0
410 1 -12.945832535816452 -11.75455423673477 3.627576999985777 0 0 0
423 1 -11.566661789753892 -13.49806194793534 4.9066236692189555 0 0 0
408 1 -10.624499033105904 -11.237341457305249 4.949509916754792 0 0 0
425 1 -9.339188734912664 -13.429703160644454 3.762372065472835 0 0 0
834 1 -7.137472695967836 -13.246935983541228 2.7451528515940353 0 1 0
407 1 -8.363290633800185 -11.15875942432292 3.865451418858303 0 0 0
416 1 -6.861555400228269 -12.71961215863959 5.127179490293784 0 0 0
405 1 -6.017481168454706 -10.466065148539741 5.259535326099254 0 0 0
414 1 -4.531693521853569 -12.55693125613794 4.1305426225523725 0 0 0
445 1 -3.673270384219391 -10.358574757220401 4.319975857918553 0 0 0
452 1 -2.5135187296053836 -12.554199626778658 2.983658678238534 0 0 0
413 1 -2.1715157457463086 -11.951936486147185 5.382266910425109 0 0 0
444 1 -1.6429414516885217 -10.296992759135826 3.043754526758942 0 0 0
343 1 -12.064001168573654 -9.50971511365017 3.645024171232741 0 0 0
335 1 -13.418572629273333 -7.373082222481126 4.847282627325843 0 0 0
366 1 -9.003391428669827 -7.064438705864834 2.811428112515877 0 0 0
367 1 -11.127141226657784 -7.3191902725331435 3.9376933389486517 0 0 0
341 1 -9.550342691119695 -8.92682938168264 5.098988323598206 0 0 0
438 1 -7.408697679544871 -8.817242093590849 3.9982696157432684 0 0 0
437 1 -5.297849914312797 -8.683549695303114 3.063713001658442 0 0 0
436 1 -5.0895927091529884 -8.250047325425054 5.3758206731721 0 0 0
435 1 -2.754128517325567 -8.019477863971137 4.4279158783776325 0 0 0
460 1 -0.7109580402388556 -8.01858423281352 3.273802390404885 0 0 0
443 1 -1.2275327616995089 -9.698971059798005 5.427621838438828 0 0 0
276 1 -0.4761686641830405 -7.482291379385894 5.5603155915949785 0 0 0
360 1 -12.866389059702403 -5.734854860181352 2.7288797226681787 0 0 0
359 1 -12.416747127931727 -5.117708092244156 5.193042939406084 0 0 0
358 1 -10.269390584882846 -5.032231542108601 3.921065051768423 0 0 0
365 1 -8.750122790663905 -6.6317396153753165 5.2357321909790215 0 0 0
388 1 -8.00068011944342 -4.813425160892322 3.036335748134274 0 0 0
364 1 -6.5656164910349 -6.553858766590512 4.200272236134843 0 0 0
356 1 -7.809575287047203 -4.32549108573474 5.353714463053066 0 0 0
386 1 -5.6997986744576625 -4.223708146075568 4.307418577133788 0 0 0
456 1 -4.408608492266994 -6.457456157988462 3.1047947341423203 0 0 0
385 1 -3.3889054976751094 -4.179842408533382 3.2945235043388834 0 0 0
362 1 -4.177031023193553 -6.044746810088767 5.54629834621085 0 0 0
454 1 -2.0073251651415607 -5.7883665401403634 4.445795974894882 0 0 0
264 1 -1.1067714540353784 -3.531386545982521 4.646453490035203 0 0 0
373 1 -11.851287973855563 -3.49324151642071 2.8885123104805324 0 0 0
374 1 -13.200123760482866 -1.206577154365302 4.146814198590416 0 0 0
352 1 -11.649988703766068 -2.804967946061627 5.284070288651712 0 0 0
934 1 -10.991963255491125 -1.1123985050543013 3.0954803998368767 0 0 0
380 1 -9.38450609844741 -2.7435296509523113 4.194157330599637 0 0 0
395 1 -10.710492183761698 -0.6170722310820071 5.559559723027984 0 0 0
372 1 -8.551890049283045 -0.5655377186710826 4.4878983331545825 0 0 0
379 1 -7.123437615147573 -2.635819240611667 3.2758963635054457 0 0 0
393 1 -6.155666008231606 -0.4284369591495132 3.3908825258840807 0 0 0
378 1 -7.010175753770315 -2.0571297106135287 5.589731682317815 0 0 0
377 1 -4.777658462168528 -2.0473413483047125 4.620885190270137 0 0 0
397 1 -2.5135445152084976 -1.8461698623079172 3.433369096318554 0 0 0
829 1 -2.801442260131809 -13.660566157749686 7.533464962589434 0 1 0
1302 1 -13.814364969472098 -13.497095783908978 5.746367113225446 1 0 0
311 1 -12.931512087071884 -11.235851926387905 6.072193496259423 0 0 0
278 1 -13.365853013104145 -13.061417153472963 8.26152418284057 0 0 0
310 1 -12.771565271449909 -10.711551544409494 8.490217886212182 0 0 0
424 1 -11.267443151306393 -12.929416385029642 7.086357564480174 0 0 0
427 1 -9.093782612886468 -12.775615161746465 6.15620112851229 0 0 0
309 1 -10.497454747633684 -10.630452482044518 7.359398713440193 0 0 0
419 1 -6.665838048502488 -12.058912189972547 7.561469469502214 0 0 0
406 1 -8.178961509877647 -10.521484763454435 6.3918860963122945 0 0 0
420 1 -4.29877343900236 -12.08230864312963 6.515329863863748 0 0 0
412 1 -1.9385275890060196 -11.428408312374687 7.720753306060537 0 0 0
422 1 -0.6040995039616384 -13.66309415625104 6.463418600842793 0 0 0
342 1 -11.823748622270564 -8.962142335788743 6.047236059847609 0 0 0
769 1 -7.3034781678109315 -13.760657284577428 9.745981533123189 0 1 0
340 1 -9.465489397910112 -8.277895483709685 7.499486096313362 0 0 0
339 1 -7.261587119909893 -8.276197497755163 6.493635755656829 0 0 0
404 1 -5.738687113860484 -9.842666139281143 7.670017248061189 0 0 0
403 1 -3.5050972316254345 -9.815918907005798 6.591301918509355 0 0 0
337 1 -4.85501731222703 -7.5113196679956635 7.88132965784261 0 0 0
434 1 -2.506001892865104 -7.5500531566328295 6.751104224629664 0 0 0
274 1 -1.0768808333553164 -9.118336268369788 7.800799892859448 0 0 0
334 1 -13.1763675834945 -6.973910387993455 7.33825624373387 0 0 0
327 1 -12.262671510136176 -4.659699161534901 7.447978386168163 0 0 0
333 1 -10.942462932605837 -6.753249972828585 6.271354929974187 0 0 0
357 1 -10.09592756579825 -4.398156899163363 6.34052283777185 0 0 0
331 1 -8.573309047974291 -6.078029185026854 7.641047129613778 0 0 0
363 1 -6.3545904294937765 -5.9566233787437275 6.598996245943617 0 0 0
355 1 -7.726193767124235 -3.805933199761082 7.813043751689058 0 0 0
384 1 -3.2712341306427284 -3.659472263590853 5.66793535552933 0 0 0
361 1 -3.9526162291399434 -5.295771448263318 7.962009071759336 0 0 0
354 1 -5.495879702517575 -3.6955761396558096 6.805176294531776 0 0 0
259 1 -1.7102629565746987 -5.287921617088093 6.848042048137266 0 0 0
265 1 -0.1698457015976036 -1.2686175470474303 4.7011008313555855 0 0 0
346 1 -12.929831578776655 -0.7447297666191552 6.649765338800648 0 0 0
382 1 -13.765571939905817 -2.870635967242638 6.35673462364149 0 0 0
351 1 -11.270894875173678 -2.402031114981604 7.830459768802324 0 0 0
350 1 -9.278683761296449 -2.179328455552797 6.675131091691373 0 0 0
370 1 -6.63089320540821 -1.586487916341996 8.032627753401023 0 0 0
901 1 -4.521351979668829 -1.4234299165588453 6.834349136990895 0 0 0
257 1 -2.9289887733191033 -2.91767840806739 8.143015170097204 0 0 0
262 1 -2.367679975931134 -1.248476491882899 5.799781252936803 0 0 0
263 1 -0.7469692331668156 -2.9605755407408516 6.985713219791698 0 0 0
261 1 -1.972320993235499 -0.748678786214267 8.197743555426467 0 0 0
1246 1 -13.282210600413967 -12.400637595352437 10.691813420137759 1 0 0
426 1 -8.892349957595986 -12.302889861952085 8.494507560374075 0 0 0
280 1 -11.04418289165056 -12.32761511356797 9.43856015472728 0 0 0
306 1 -8.531934867193094 -11.640950678338227 10.797246620150915 0 0 0
428 1 -6.439130257138914 -11.539237567323198 9.843848257869741 0 0 0
429 1 -4.222524273479051 -11.480444441260335 8.809276370834741 0 0 0
432 1 -4.849457496256399 -13.094091543967451 10.83925823782361 0 0 0
430 1 -4.01710205485592 -10.855843633958411 11.279883409613358 0 0 0
421 1 -2.64655459576411 -13.063641479442277 9.921315647291692 0 0 0
270 1 -1.735315499023356 -10.677187634059514 9.975559756789355 0 0 0
272 1 -0.4420415369478583 -12.904742435966249 8.737590044702717 0 0 0
303 1 -11.520050149380495 -8.643013790794626 8.67325103243083 0 0 0
1292 1 -13.954576817014187 -8.535184514006097 9.642775198347756 1 0 0
285 1 -12.426529124353909 -10.138359651359401 10.727311265852034 0 0 0
295 1 -11.413448511031223 -7.991239287503877 10.998595844586301 0 0 0
308 1 -10.129623365296606 -10.10041625566513 9.814355408634196 0 0 0
301 1 -9.245956614419516 -7.679274942695086 9.890432213983889 0 0 0
338 1 -7.908722118028372 -9.91206477816495 8.630542092865532 0 0 0
329 1 -7.070848795964951 -7.651796994500184 8.740389552527649 0 0 0
299 1 -6.6241491246774045 -7.190704923319491 11.314338088509974 0 0 0
307 1 -7.782020912441989 -9.4516330872863 11.031250645342336 0 0 0
305 1 -5.548753263448756 -9.332162422780144 10.040384911367223 0 0 0
402 1 -3.2913699762875037 -9.11176989711356 8.843209718099349 0 0 0
336 1 -4.487157424322342 -7.096257612437664 10.323578757405816 0 0 0
273 1 -0.742018356196029 -8.637987566291672 10.199314565340398 0 0 0
250 1 -2.254273718366706 -6.914058998279467 9.106425499112657 0 0 0
297 1 -12.94902998814234 -6.298862729110745 9.703531043250198 0 0 0
326 1 -12.074662928594268 -4.024679059243894 9.848515728097453 0 0 0
332 1 -10.757501888145038 -6.235528756784025 8.551112216031822 0 0 0
325 1 -9.853320401667325 -4.03107179835793 8.897628294705328 0 0 0
293 1 -10.410918147168267 -5.614175103343573 11.075431330864973 0 0 0
330 1 -8.180835350103852 -5.556787423536354 10.07978149312778 0 0 0
353 1 -6.063612314466182 -5.531405101024049 9.084464652314612 0 0 0
328 1 -5.7885366353306065 -4.854890235751377 11.435024589766382 0 0 0
247 1 -3.6112247083538787 -4.779873674005394 10.267658514681514 0 0 0
258 1 -1.3271889286425207 -4.764443903445574 9.226291886593557 0 0 0
705 1 -4.677071655385774 -2.033039839842301 13.8164857301729 0 0 0
317 1 -13.459755017932277 -2.365726770757325 8.691511460804946 0 0 0
316 1 -13.411957959336771 -1.7741367360048752 11.099375623568015 0 0 0
315 1 -11.101067835538862 -1.745199912812195 10.098172265950755 0 0 0
349 1 -8.764277043790207 -1.6778830164569545 9.08558894841157 0 0 0
324 1 -9.64240791764665 -3.357927478706669 11.218239363055645 0 0 0
323 1 -7.4416625796114895 -3.285721391890535 10.191115427122082 0 0 0
243 1 -6.5434014840324854 -0.8282363303260691 10.381741562416604 0 0 0
348 1 -5.252740337701601 -3.2607668040557947 9.1714635988153 0 0 0
376 1 -4.253524091024824 -0.9175365884402495 9.222613570242444 0 0 0
256 1 -2.735761813647679 -2.4573536554041393 10.536294323498005 0 0 0
255 1 -0.4090124685709853 -2.338794651898768 9.424466425938757 0 0 0
251 1 -1.8170732158258254 -0.17699475607364334 10.535944019523033 0 0 0
283 1 -13.108401957628152 -11.782837978058561 13.094879920248783 0 0 0
127 1 -9.369720695029459 -13.370853198841086 13.01278978575586 0 0 -1
282 1 -11.009892516485774 -11.602260666756589 11.993696969484539 0 0 0
103 1 -8.289715996467944 -11.235836145781246 13.323186888075416 0 0 -1
431 1 -7.157686850318303 -13.27553974668074 12.069176071510999 0 0 0
284 1 -6.185861575942658 -10.987361824144925 12.269612942027173 0 0 0