LAMMPS data file via write_data, version 2 Aug 2023, timestep = 0, units = metal

1862 atoms
3 atom types

-14.376784886143584 14.376784886143584 xlo xhi
-13.90155647896943 13.90155647896943 ylo yhi
-13.662368671999246 13.662368671999246 zlo zhi

Masses

1 55.847
2 1.008
3 1.008

Atoms # atomic

939 1 -10.333112292683273 -13.098595535215072 -10.12266948993129 0 0 0
940 1 -13.71642173474314 -11.540164791332149 -11.719186394206288 0 0 0
941 1 -10.965509240192441 -12.162299906771407 -12.747164279231285 0 0 0
961 1 -11.539243043383621 -11.03127381521664 -10.649424137511016 0 0 0
963 1 -12.901384046671511 -8.98176811634315 -11.232437736934418 0 0 0
960 1 -9.519046442859274 -10.446537713650514 -9.572759149514859 0 0 0
953 1 -12.33623984054185 -10.248710611664405 -13.21372821848466 0 0 0
962 1 -10.205163198267112 -9.680790869777995 -12.040497470583436 0 0 0
936 1 -12.924336513810141 -12.487604772331643 -9.216590728493745 0 0 0
1007 1 -12.15336617301736 -9.755111204532069 -8.535832392404528 0 0 0
1591 1 -12.410472563786904 -13.685200925849488 -11.20167044659161 0 1 0
970 1 -8.838329200017766 -11.643549343327205 -11.640244996729432 0 0 0
937 1 -14.31439456916588 -10.44204038951998 -9.72141320817697 0 0 0
959 1 -10.905203439791181 -11.784764271085859 -8.049041469465973 0 0 0
998 1 -10.765512732601788 -8.349777572755741 -10.078067360745186 0 0 0
969 1 -6.756187355877395 -10.950020301880123 -10.559805812374218 0 0 0
976 1 -5.46474133080959 -12.987145439135793 -10.065546122864635 0 0 0
977 1 -4.206534283138582 -11.637001070570452 -11.635855254895084 0 0 0
978 1 -6.287947755716285 -12.22100027185452 -12.632258966586226 0 0 0
1028 1 -4.53196803033558 -10.385570877545593 -9.384610751913403 0 0 0
1018 1 -8.01828621287023 -8.882689194033569 -10.93153618975705 0 0 0
1030 1 -5.400370826763728 -9.564070497684565 -12.047418791470411 0 0 0
968 1 -8.19915668965233 -12.303444618272572 -9.061694397760206 0 0 0
1016 1 -7.346331860893175 -9.744687803206912 -8.537288762380694 0 0 0
971 1 -7.474550393532572 -10.159970601485327 -13.074651825091227 0 0 0
975 1 -3.363984706639691 -12.52342102129155 -9.194750803313976 0 0 0
1029 1 -3.274903165651631 -8.981144184090832 -10.990021823726206 0 0 0
942 1 -7.630999747218723 -13.695650693250725 -11.199863060122581 0 0 0
967 1 -6.066506639397737 -11.79777094886051 -8.089724952968199 0 0 0
1017 1 -5.890338737198455 -8.3256406872936 -9.986833244370008 0 0 0
1041 1 -2.8773875901846626 -10.264223259266416 -13.1061152400929 0 0 0
980 1 -0.7185036107523732 -12.970281746615667 -10.230408589901584 0 0 0
982 1 -1.5007952303184098 -12.259294349731865 -12.833337068655064 0 0 0
1039 1 -1.969294424754013 -11.070694169073985 -10.667058478148133 0 0 0
1038 1 0.07169380138241621 -10.37435019548993 -9.573038036397868 0 0 0
1049 1 0.66880033607044 -11.662832521462095 -11.819885705111991 0 0 0
1040 1 -0.7983944037536013 -9.597819676890532 -12.024611001072353 0 0 0
1132 1 1.4398556384818164 -8.837900112880469 -11.117513092889041 0 0 0
1047 1 1.3312037500465141 -12.422614706398065 -9.212956573191278 0 0 0
1027 1 -2.427767748914576 -9.72373496045085 -8.41336448916908 0 0 0
1050 1 1.9697199492115747 -10.154023647438803 -13.17115691284304 0 0 0
981 1 -2.8828405304391183 -13.681172949432245 -11.286764325253982 0 0 0
1130 1 2.2089918434464426 -9.78811410364215 -8.586240101985883 0 0 0
983 1 1.8421242576802204 -13.735977344892813 -11.340785351349972 0 0 0
1037 1 -1.2684513515964664 -11.931235523409242 -7.955720984109044 0 0 0
1048 1 2.7968682545821277 -11.035649234862648 -10.725299284680412 0 0 0
1055 1 4.07229437906698 -13.152727595889148 -10.387318177605497 0 0 0
1056 1 5.451274576979555 -11.715330638169284 -11.862114830327496 0 0 0
1057 1 3.2816615326204808 -12.265239067606853 -12.831399547104223 0 0 0
1142 1 4.930900015354327 -10.41187872818852 -9.675496417373564 0 0 0
1143 1 6.180313580972667 -9.034397830648139 -11.15372715216963 0 0 0
1144 1 4.149092466981299 -9.626769172197898 -12.333203383885513 0 0 0
1054 1 6.198735682201223 -12.538457833460932 -9.326068156990322 0 0 0
1141 1 6.960899673847303 -9.807245576952006 -8.592352558202869 0 0 0
1156 1 6.890660616033349 -10.326042570694051 -13.183204827807835 0 0 0
1154 1 7.537055754070758 -11.073009198604355 -10.667190771557658 0 0 0
1060 1 6.775626972527606 -13.690533041263608 -11.533156456065818 0 0 0
1046 1 3.4476065796368065 -12.040064665523097 -8.216893620097004 0 0 0
1131 1 3.737823952374141 -8.40631527572629 -10.273543213598094 0 0 0
1061 1 8.156230341901344 -12.22456925556253 -12.849054805631615 0 0 0
1059 1 8.92861938135882 -13.15208796596973 -10.374514360777228 0 0 0
1161 1 12.355777088165967 -11.078961155364867 -10.641442609603754 0 0 0
1162 1 10.269177055440226 -11.685424422878917 -11.770445106559572 0 0 0
1155 1 8.943641405465806 -9.489945492423958 -12.137871601862306 0 0 0
1265 1 11.183904916618443 -8.821882100765219 -11.12099315575637 0 0 0
1153 1 9.639466084528708 -10.385783605796583 -9.71966288151513 0 0 0
1160 1 11.064814508738236 -12.473822159184499 -9.227735636400453 0 0 0
1263 1 11.731828016164693 -9.75989996322265 -8.592356056185823 0 0 0
1163 1 11.802259559665027 -10.302313945175815 -13.170828978703344 0 0 0
1165 1 12.934963380678328 -12.366892530290587 -12.820807111748783 0 0 0
1063 1 11.630567773979406 -13.784289323775226 -11.461275949128066 0 0 0
1264 1 13.265849914844056 -8.406277417243945 -9.995944724863605 0 0 0
1164 1 13.696320119496184 -13.193584805457634 -10.312299419632438 0 0 0
1257 1 8.317141049003327 -8.367186224828508 -10.096612412765287 0 0 0
1159 1 13.16815503925409 -11.906640920478647 -8.161478547908459 0 0 0
1268 1 13.837843017103735 -9.604138318697174 -12.299540134351233 0 0 0
999 1 -12.78805575860659 -5.526423272405198 -13.002299260182419 0 0 0
1009 1 -11.4801609268488 -7.515725714479226 -12.499976325951737 0 0 0
1088 1 -10.009172786731106 -5.560370960755003 -9.569616622445473 0 0 0
1090 1 -10.679786602051905 -4.912375999608049 -12.015861284214715 0 0 0
1008 1 -9.418764385530647 -6.97516630396401 -11.590839098369921 0 0 0
1078 1 -11.270464431106644 -3.4932865873643237 -9.956331165810537 0 0 0
1079 1 -13.41486154343996 -4.166542744895928 -10.955470871720088 0 0 0
997 1 -13.321659700255864 -7.836756259460979 -8.95475842078055 0 0 0
952 1 -12.113946435043616 -6.3510622802285095 -10.545461121302392 0 0 0
1077 1 -12.637042846148454 -5.027784124529372 -8.45828335834533 0 0 0
1192 1 -9.058676986232893 -2.982978882265547 -8.744379755328136 0 0 0
655 1 -9.134814303699201 -3.376355679665112 -13.533836468075002 0 0 1
1070 1 -13.882680537049461 -2.9683264754333827 -8.908985793829096 0 0 0
1370 1 -14.247366974861144 -6.983780190308867 -11.594338126541658 1 0 0
1080 1 -14.031781747274124 -3.432457234864845 -13.457729391120681 0 0 0
1091 1 -11.851601835831453 -2.831900375455483 -12.395580368889554 0 0 0
1020 1 -8.759884506333412 -8.11611001541202 -13.648494632868179 0 0 0
1006 1 -8.67441251662285 -7.679448459053253 -8.89444468748397 0 0 0
1089 1 -8.51602388012852 -4.348009395980769 -10.954386237601836 0 0 0
1102 1 -8.000338407138674 -5.561864540393225 -13.011265213277277 0 0 0
1019 1 -6.601481661991459 -7.43466888996634 -12.587970696811166 0 0 0
1099 1 -5.128802841353924 -5.668655908454596 -9.342590150931947 0 0 0
1100 1 -7.25827407370543 -6.385488660831182 -10.467536773960907 0 0 0
1101 1 -5.86578570666687 -4.973352625027472 -11.866637415903273 0 0 0
1112 1 -4.479786947238956 -6.873465731540296 -11.442674184162957 0 0 0
1203 1 -6.451854269507664 -3.7224091226469884 -9.757030586847812 0 0 0
1110 1 -3.7664958511631834 -7.755327529165701 -9.026793858288972 0 0 0
1214 1 -3.7243481605554596 -4.317609054269987 -10.8790643594143 0 0 0
1202 1 -4.338067470207767 -3.0026485842238024 -8.753432879773083 0 0 0
1087 1 -7.869343662846995 -5.098113212392313 -8.246770130655857 0 0 0
1216 1 -4.424734168295984 -3.4568675030196356 -13.352379152430297 0 0 0
1205 1 -7.003362124575419 -2.909680094775279 -12.35790100465033 0 0 0
1031 1 -3.845136852040719 -8.100943258501312 -13.582909967821363 0 0 0
1121 1 -1.1458097102447589 -8.297151877308483 -9.947994330026212 0 0 0
1113 1 -3.0499793269862323 -5.493503138505281 -13.071431006544426 0 0 0
1212 1 -3.021149196339744 -4.97760344260519 -8.341299807223827 0 0 0
1111 1 -2.3915444303992786 -6.306143952410957 -10.450349904762845 0 0 0
1123 1 -1.7164119907338247 -7.354964894936452 -12.576991400507122 0 0 0
1226 1 -0.9808005211869055 -4.868415854191602 -11.984604624000186 0 0 0
1122 1 0.3620922054086897 -6.875573330666293 -11.525131180312247 0 0 0
1224 1 -0.31929635963343017 -5.675656579203505 -9.370851210747816 0 0 0
1225 1 1.0710110723197648 -4.351089093602765 -10.954199454011825 0 0 0
1238 1 1.740895998811057 -5.579301543490651 -12.924923706965695 0 0 0
1213 1 -1.6389739316982652 -3.717235890659314 -9.764433754907937 0 0 0
1120 1 0.9594271153049849 -7.649904687615783 -9.033998103438261 0 0 0
1330 1 0.4642408278965213 -2.9945058986289137 -8.903449152820283 0 0 0
1223 1 1.7750269245204375 -4.952911376217536 -8.360016477047424 0 0 0
1227 1 0.38717282635385963 -3.458162921301705 -13.488975985209114 0 0 0
1215 1 -2.3480462905631345 -2.804043520483402 -12.327065831990131 0 0 0
1236 1 2.448962339482682 -6.282014947398809 -10.40507059966352 0 0 0
1343 1 2.5086110079970876 -2.895393909597459 -12.352431202918604 0 0 0
1133 1 3.020586306784237 -7.53375376659861 -12.455982295724054 0 0 0
1235 1 4.53052511926141 -5.765566381000303 -9.442380328568216 0 0 0
1237 1 3.772439282116773 -4.857011460462758 -11.86114351456759 0 0 0
1248 1 5.103882734017871 -6.9682426934817565 -11.461397105700156 0 0 0
1249 1 6.364082725766719 -5.497528479321016 -12.937621246272949 0 0 0
1247 1 7.215097940059215 -6.277349704602794 -10.436879408707586 0 0 0
1341 1 3.1704971667186026 -3.6527184460484285 -9.83998111367077 0 0 0
1352 1 5.788000253802965 -4.313427515828899 -10.797138219632718 0 0 0
1246 1 5.7233829149592825 -7.742256243409279 -9.015657800838547 0 0 0
1340 1 5.240614561236319 -2.941794282728642 -8.81050433111569 0 0 0
1259 1 7.499657027532498 -7.51679573493914 -12.52045938835028 0 0 0
1350 1 6.5182579709420185 -5.087947375827582 -8.363879810744994 0 0 0
1354 1 5.134866399184416 -3.4596944203669757 -13.40974775169674 0 0 0
1353 1 7.170573397715357 -2.883494606850814 -12.427947785301328 0 0 0
1351 1 7.867233196816633 -3.6490872709823563 -9.960142663254446 0 0 0
1256 1 10.589006495079394 -7.699229409776466 -9.05894300413302 0 0 0
1364 1 8.527864045312915 -4.761553702623884 -12.07918379606218 0 0 0
1258 1 9.621270242438415 -6.963910735238973 -11.595239027525706 0 0 0
1266 1 12.387083223114137 -7.569486281105927 -12.61693007658602 0 0 0
1369 1 11.83301524130866 -6.371464190088168 -10.578469790831004 0 0 0
1371 1 11.197097326035651 -5.567953283950095 -13.064105378246872 0 0 0
1363 1 10.58188040651679 -4.178201457363555 -10.987395296777345 0 0 0
1471 1 12.821798365956491 -3.5128990110271445 -9.991195132728325 0 0 0
1362 1 9.393755764320113 -5.701228934226952 -9.524561696553398 0 0 0
1361 1 11.373201175277545 -5.091907804014696 -8.420727514688952 0 0 0
1466 1 10.052447397359755 -3.1048796316864316 -8.76109752329624 0 0 0
1365 1 9.976955253565377 -3.3516888084472747 -13.510956519375828 0 0 0
1473 1 13.27525329310044 -4.911558219420895 -11.930157435646045 0 0 0
1469 1 12.035102255885013 -2.779852301047576 -12.243254986422299 0 0 0
1368 1 14.056708296232847 -5.613072225428619 -9.536424028341962 0 0 0
1181 1 -10.387609389708881 -1.0278897178846709 -9.344381991637125 0 0 0
1182 1 -12.588578189662407 -1.5050767107565068 -10.253305089329233 0 0 0
1184 1 -13.736653788414786 0.42393061739878846 -10.798200167233361 0 0 0
1194 1 -9.721197125948825 -2.2326948618068307 -11.363832967185292 0 0 0
1183 1 -11.04690894659794 -0.1577678078173097 -11.753193762675187 0 0 0
1286 1 -11.579378490805956 1.1312747613306051 -9.69897683343094 0 0 0
770 1 -13.189451805239013 -0.7267855871725644 -12.973303035716805 0 0 1
1289 1 -12.318618140917945 1.8573633526533264 -12.179159189360018 0 0 0
1399 1 -9.49447591297049 1.7439700386781514 -8.609747388871753 0 0 0
1300 1 -9.610711968675037 1.282936109489711 -13.261097253310057 0 0 0
1287 1 -10.236918703260237 2.5836156712699196 -11.288067384618422 0 0 0
1298 1 -8.897812422754061 0.6158863671013002 -10.82816623517735 0 0 0
1172 1 -12.952986880725437 -0.40397287683442684 -8.104625928038878 0 0 0
1195 1 -8.44567430872717 -0.7894452843775461 -12.804222352800544 0 0 0
1193 1 -7.710337959182245 -1.6327801934416417 -10.289193076523528 0 0 0
1204 1 -4.916548887732571 -2.1974193956792387 -11.295898264530997 0 0 0
1308 1 -5.643342403258002 -1.0200513995861655 -9.20876581584743 0 0 0
1297 1 -6.2723916109604705 -0.2598857463564741 -11.777705039418658 0 0 0
1310 1 -4.1952933791016935 0.4070637711990308 -10.739578610474661 0 0 0
1299 1 -7.517326540335498 1.883351239147009 -12.271360389335436 0 0 0
1412 1 -4.7102236144999505 1.6741398410930852 -8.54621643123281 0 0 0
1400 1 -6.781304523997272 1.1381755577561083 -9.703108687687099 0 0 0
1311 1 -4.864046645625152 1.3293157967288636 -13.168437964299136 0 0 0
1309 1 -3.598718134236183 -0.7324451719264395 -12.866393821358665 0 0 0
1414 1 -5.502431031149591 2.598520218226648 -11.046213345301409 0 0 0
1296 1 -8.40424467911226 -0.3716191293037916 -8.318235236703506 0 0 0
1307 1 -3.5108576840523433 -0.3258589651252688 -8.135019388433248 0 0 0
1424 1 -2.1841269535860146 1.082758153615588 -9.785652875681672 0 0 0
1322 1 -1.4974972816955177 -0.2207423233935124 -11.773557280143073 0 0 0
1426 1 -2.648945280330535 1.922982474359653 -12.128687510927515 0 0 0
1320 1 -2.885011842976949 -1.6435825887258737 -10.117013555177195 0 0 0
1319 1 -0.6848615009327279 -0.919498006070242 -9.314559298917477 0 0 0
1332 1 -0.295605735581038 -2.311124295818532 -11.35237813295602 0 0 0
1321 1 0.6653867599510122 0.3964296858748195 -10.854118759185646 0 0 0
1333 1 1.1337400358996508 -0.828591911936881 -12.734276709407398 0 0 0
1423 1 -0.006493683400158545 1.7313705958099508 -8.731722690286393 0 0 0
1437 1 -0.0804702142137117 1.2721385920718706 -13.294806629989678 0 0 0
1331 1 1.9374136640824684 -1.6146137644695635 -10.32160042304745 0 0 0
1425 1 -0.5383835597369586 2.4008602059473763 -11.263648999858164 0 0 0
1435 1 2.0701518456279526 1.9416533284540503 -12.158365511575273 0 0 0
1433 1 1.2651238533086566 -0.3511853077403426 -8.189110823520641 0 0 0
1434 1 2.7886680855898067 1.1175111085338294 -9.78324110364239 0 0 0
1342 1 4.664421742597343 -2.1756632594957352 -11.362418195993579 0 0 0
1445 1 4.02535308959702 -0.9514255248890304 -9.331163362573339 0 0 0
1457 1 6.85425384365624 -1.5749988108014605 -10.310054499629388 0 0 0
1446 1 5.388517670263804 0.4725966902166405 -10.870418777567842 0 0 0
1447 1 3.274637907907083 -0.2042924503256387 -11.737293187548344 0 0 0
1459 1 6.013180719102076 -0.7404184276702654 -12.915965676125849 0 0 0
1562 1 6.839575776335048 1.952039352517879 -12.250863959894865 0 0 0
1549 1 4.757372141639999 1.766309479637826 -8.70905823383249 0 0 0
1551 1 4.143899405839656 2.6690784975197754 -11.095604287412023 0 0 0
1448 1 4.664453260284054 1.3091051707802137 -13.274998235263464 0 0 0
1560 1 7.526543721375758 1.1155895517621577 -9.728347058486632 0 0 0
1444 1 6.1057621880676844 -0.3114988923663571 -8.172499968972014 0 0 0
1458 1 8.108761183596245 -0.06938967626103576 -11.816929425268249 0 0 0
1467 1 11.416061222995284 -1.4833228534098346 -10.26865672099354 0 0 0
1468 1 9.298490752275432 -2.1177165379662988 -11.423597511642214 0 0 0
1569 1 12.340755100492325 1.1542908007592416 -9.691236436199002 0 0 0
1570 1 10.163349267131553 0.450209751570247 -10.732817327163362 0 0 0
1571 1 11.653284357413137 1.8962343463746691 -12.291860541825006 0 0 0
1456 1 8.867798428524248 -0.9683102510922073 -9.285287321303343 0 0 0
1559 1 9.54884365740955 1.7022531953687103 -8.613491447811292 0 0 0
1572 1 10.755412635540223 -0.7331723204135638 -12.919181928752243 0 0 0
154 1 9.443829738544748 1.2972920977326243 -13.309719674266574 0 0 1
1574 1 12.778922041873892 -0.14584636019624853 -11.743841377293215 0 0 0
1561 1 8.958935053652558 2.4526959075652126 -11.211349254595453 0 0 0
1568 1 10.896748876430204 -0.3703178719371891 -8.07389051584703 0 0 0
1573 1 13.574260259632661 -0.9507273365842597 -9.14374384570624 0 0 0
1173 1 -14.326857411531847 1.8998451794044584 -8.78136131739305 0 0 0
1676 1 13.719805932100575 2.6881247901234406 -11.116583133398231 0 0 0
1288 1 14.204332777103724 1.2513913880878675 -13.181999401909668 -1 0 0
1472 1 14.194344609761648 -2.0625313827831047 -11.432256496484975 0 0 0
1277 1 -12.970308463501038 3.2200424430971406 -10.144609721053342 0 0 0
1382 1 -11.996199451471107 5.8792498731908065 -9.525531588699952 0 0 0
1383 1 -12.784724001442026 6.6684390466695 -12.010353245100397 0 0 0
1391 1 -10.85356905741125 3.8816297864048135 -9.110490395655571 0 0 0
1392 1 -9.488956294284673 5.192188064631283 -10.652942775927594 0 0 0
1393 1 -11.454352481257231 4.580859964803695 -11.73657985738672 0 0 0
1394 1 -10.040362099617402 6.0419189084918425 -13.212211143875539 0 0 0
1495 1 -10.726354619131337 7.1865918893686125 -11.05124293166074 0 0 0
1485 1 -13.323023259551734 7.870718467309709 -9.878590488221617 0 0 0
1493 1 -9.930123387815334 6.525080808836934 -8.432774502161873 0 0 0
4 1 -13.655439348846505 4.028935535147701 -12.727580441895537 1 0 1
1772 1 -14.192999897794726 5.200782099518685 -10.528911262298136 1 0 0
1404 1 -8.72297269086004 4.055265150260487 -12.621269629595439 0 0 0
1374 1 -13.533874211093906 4.408233791151021 -7.908368100882862 0 0 0
1494 1 -8.494600207328167 7.926965607193528 -9.877673414650715 0 0 0
1402 1 -8.194694563573652 3.1834845161088285 -10.081741266136337 0 0 0
1507 1 -8.05314690954469 6.637474444216744 -12.076518750280432 0 0 0
1403 1 -6.680908541017884 4.518380170679224 -11.637406045084113 0 0 0
1415 1 -4.077434495348937 3.8578335462406788 -12.729191601948816 0 0 0
1505 1 -7.265010813531294 5.90934050014072 -9.556972443789391 0 0 0
1517 1 -4.590841267143375 5.270655500038613 -10.46156159277293 0 0 0
1519 1 -5.245634615404084 6.046610891965647 -13.025885603149439 0 0 0
1506 1 -5.889131522205396 7.386182746738639 -10.941344019311707 0 0 0
1504 1 -5.23341134172102 6.474181375464246 -8.315244646214337 0 0 0
1621 1 -3.813705446035055 7.953487440146668 -9.932612628020882 0 0 0
1388 1 -5.9642867373048425 3.770209732979625 -8.97205148240629 0 0 0
1413 1 -3.265697455449896 3.2422647305573538 -10.159801064500968 0 0 0
1416 1 -6.154137968550158 3.3348127930803795 13.587664793331044 0 0 -1
1518 1 -3.2525389733437287 6.623727839451815 -12.017234513836762 0 0 0
1539 1 1.4321333814175592 3.1293000101037496 -10.022432233588384 0 0 0
1516 1 -2.499111772402646 5.819962204493768 -9.634513398720504 0 0 0
1527 1 -1.2140703087735378 3.78764569023034 -8.968814268745694 0 0 0
1529 1 -1.8385167736111843 4.503572888953046 -11.69163865983654 0 0 0
1528 1 0.15030415619400905 5.088924648002914 -10.546368408381877 0 0 0
1541 1 0.7472198542323767 3.946224968835411 -12.740000643989307 0 0 0
1632 1 -1.1313595742363258 7.177128314867593 -11.050618996272043 0 0 0
1644 1 1.5900730867951332 6.667720549506141 -12.073882740996972 0 0 0
1631 1 0.9750661774381015 7.845106582797735 -9.99098816239636 0 0 0
370 1 -0.42451498652446595 6.019603198697899 -13.276803421421938 0 0 1
1630 1 -0.3882773827542412 6.441019176181333 -8.484280843865687 0 0 0
1634 1 -1.8245229751516021 8.036302699871575 -13.521203086957291 0 0 0
1642 1 2.221304536326242 5.7860198289460865 -9.401606605371242 0 0 0
1526 1 0.9870413536124776 4.284069596865388 -7.909498172233366 0 0 0
1620 1 -1.6863406311749447 8.605197717847487 -8.924817332275197 0 0 0
1550 1 6.203453486142452 3.148173516261517 -10.128194717972397 0 0 0
1540 1 2.756019189877433 4.594630814927589 -11.590014652311464 0 0 0
1552 1 5.5580673430877265 4.010576275579906 -12.624278930288419 0 0 0
1653 1 7.10724357960949 5.96260045655376 -9.506957869253222 0 0 0
1654 1 5.037967069177769 5.27337383160476 -10.573288043220074 0 0 0
1656 1 4.235389381295034 5.950356788968234 -13.011647671188253 0 0 0
1643 1 3.707493870524166 7.371709656022896 -10.904523279379923 0 0 0
1655 1 6.395104530251521 6.82389407717624 -12.07455523966459 0 0 0
1751 1 5.819492433603346 7.959195566376474 -10.009275454258198 0 0 0
1538 1 3.6146760407243743 3.847823805292675 -9.02675093988019 0 0 0
1641 1 4.35949246106655 6.541505607637026 -8.410840827411507 0 0 0
1666 1 7.626156485550057 4.759936889951282 -11.701764529975899 0 0 0
130 1 7.798557954130645 8.142085376766522 13.651522891469359 0 0 0
1645 1 2.9615226538472914 8.135130444132946 -13.645345690821769 0 0 0
1673 1 10.914319956491488 3.1825402641988756 -10.179369226319848 0 0 0
1664 1 8.424461049609691 3.8806999401559477 -9.246766357635792 0 0 0
1762 1 8.589355660103182 7.459083366381668 -11.150421627751896 0 0 0
1667 1 9.209329238551076 6.094559177794752 -13.225658388498527 0 0 0
1665 1 9.741002221118594 5.42619750936125 -10.615999015979376 0 0 0
1674 1 12.457218821640184 4.6181239434876975 -11.774871932234825 0 0 0
1675 1 10.336159712158848 3.8799491425257333 -12.6342474640661 0 0 0
1768 1 11.91862794506561 5.886160898367274 -9.51585883833916 0 0 0
1770 1 11.245318512638383 6.727881570735585 -12.071084985911979 0 0 0
1761 1 10.607113994022084 8.034569481172094 -9.947341584652722 0 0 0
1760 1 9.233884004209907 6.456192752509233 -8.407843024296675 0 0 0
1769 1 13.34013577678318 7.274583721949208 -10.993594212954116 0 0 0
1672 1 13.057982100266711 3.7670361668258128 -9.09697359136142 0 0 0
40 1 12.639783789114015 8.187715136798507 -13.623748448842798 0 0 1
1663 1 10.514941378327253 4.444222375734848 -7.943743520897613 0 0 0
5 1 13.861308270516117 6.203441213434592 -13.07384753844544 0 0 1
1767 1 13.935708626378046 6.481841113501359 -8.221568350323901 0 0 0
1484 1 -11.14978352473985 8.541311464015356 -8.9345818961824 0 0 0
1496 1 -9.202494632512511 8.673255821577781 -12.343125470802418 0 0 0
1699 1 -9.702463969240338 13.542772729036804 -12.271495460087353 0 0 0
1486 1 -11.96755040666135 9.188547281963322 -11.445934391241181 0 0 0
1588 1 -12.624652308874634 10.491686160461752 -9.299615673601899 0 0 0
1589 1 -11.20537392234895 12.124832306412893 -10.873233368751476 0 0 0
1600 1 -9.873417112997553 9.945480796865956 -10.265296634766308 0 0 0
1602 1 -10.56777489478286 10.750528141529019 -12.83272190248013 0 0 0
1835 1 -13.21395117648549 11.418360228873995 -11.827117178621844 1 0 0
1690 1 -13.848907787265551 12.620088693326435 -9.839179315740886 0 0 0
1689 1 -11.777033834745504 13.175490422490496 -8.74985854008074 0 0 0
1698 1 -9.067555888334935 12.68163927862908 -9.569852283397113 0 0 0
1771 1 -14.068795669110852 8.66772291779977 -12.543018739638354 1 0 0
703 1 -11.833735795544086 12.850063936357651 -13.334448159869945 0 0 1
1587 1 -10.455275432003456 11.192982786901682 -8.314376700660624 0 0 0
1610 1 -6.399484378944376 8.5709609769521 -8.808915096665057 0 0 0
1623 1 -4.48180681928906 8.683703337785529 -12.595151439347026 0 0 0
1601 1 -8.509566607611752 11.469506738094134 -11.953371448604797 0 0 0
1709 1 -5.065578779207289 13.490438470302118 -12.238941377074047 0 0 0
1599 1 -7.762395283752887 10.615357717247873 -9.224578296020727 0 0 0
1611 1 -5.0272959261630294 9.960583196468852 -10.40054892751013 0 0 0
1612 1 -7.125617475162605 9.40157893703516 -11.257776013675084 0 0 0
1613 1 -5.708650824008316 10.775668516627094 -12.819488715141963 0 0 0
1707 1 -4.227346281533441 12.665458683474588 -9.767813563736041 0 0 0
1708 1 -6.390552410537517 12.023078075305994 -10.81199693288193 0 0 0
1697 1 -6.873160728987775 13.373643073568596 -8.636772221551647 0 0 0
1720 1 -3.5906647610238593 11.351968693596193 -11.951267060746883 0 0 0
1710 1 -7.146467209936164 12.900375440305433 -13.39632270765019 0 0 0
1706 1 -5.641297279809491 11.165394987546412 -8.261183493261814 0 0 0
1633 1 0.2686960661862745 8.667622342622307 -12.621636453962463 0 0 0
1718 1 -2.9288047045558443 10.594913585376633 -9.296563546093534 0 0 0
1622 1 -2.3772777527423443 9.26190945968053 -11.421235903098228 0 0 0
984 1 -0.11812348985937682 13.581020840526515 -12.410559753351706 0 -1 0
1719 1 -1.553423733755455 12.167700265061692 -10.764698516568783 0 0 0
1730 1 -0.29113923070053005 9.929230569116656 -10.509750666424537 0 0 0
1732 1 -1.0441390225633427 10.761511402648127 -12.922513284923317 0 0 0
1731 1 0.9987653749233427 11.410198897409115 -11.999374683519601 0 0 0
1796 1 0.5211201373223631 12.635743606499366 -9.817549699695835 0 0 0
1788 1 -2.090643199822935 13.28950218195123 -8.666518194423768 0 0 0
1729 1 1.7223911513494432 10.51428153232038 -9.420432500392462 0 0 0
1797 1 -2.268494020918139 12.833867436397346 -13.409097364809101 0 0 0
1717 1 -0.7519927132574953 11.222042907923624 -8.380613245363765 0 0 0
1740 1 2.8952254838895133 8.635747874446503 -8.854287425098466 0 0 0
1742 1 2.2666349441568503 9.274657120814839 -11.444130011476126 0 0 0
1808 1 2.5330860408394624 12.74201945125038 -13.564774633702093 0 0 0
1750 1 7.976184397597725 8.509559362895525 -8.934129198113382 0 0 0
1795 1 2.662779057824613 13.21616429169468 -8.87471718066334 0 0 0
1753 1 5.077193027995884 8.651689302030407 -12.496368981292022 0 0 0
985 1 4.490632888802098 13.423123763565874 -12.338815766996746 0 -1 0
1741 1 4.528242657239174 9.992586235863046 -10.381712102079215 0 0 0
1743 1 3.766148680154691 10.617595393302024 -12.945455208432179 0 0 0
1752 1 7.165569189529437 9.39589653879767 -11.477276534942341 0 0 0
1805 1 5.315068731973247 12.546246258000545 -9.908680458721795 0 0 0
1806 1 3.2019963111336853 11.99170652227861 -10.89252646444658 0 0 0
1816 1 6.714654575965907 10.61248002019366 -9.466816437208557 0 0 0
1818 1 5.810400580816806 11.251964957602533 -11.991539609739807 0 0 0
1819 1 7.309076345119168 12.738806347212629 -13.418008454034762 0 0 0
1850 1 7.539661814643688 13.257063747231497 -8.898465517210994 0 0 0
1804 1 3.884882141427502 11.271508776223888 -8.270938526497197 0 0 0
1832 1 12.773988244206473 8.53732527323582 -8.99864616777893 0 0 0
1817 1 7.903742671419769 12.024265683470214 -10.84468774829038 0 0 0
1764 1 9.95733381582191 8.8443189634646 -12.520478046299848 0 0 0
1830 1 8.67702117205913 10.86024217563221 -12.99908540771054 0 0 0
1064 1 9.46695668416608 13.525953390982922 -12.467646387564214 0 -1 0
1828 1 9.38464371610557 10.023692352182474 -10.488551973445194 0 0 0
1829 1 10.68631811165661 11.400852110177057 -11.978952351963487 0 0 0
1834 1 12.075202726806035 9.4439108113513 -11.497203861709227 0 0 0
1857 1 10.184010174098654 12.768654591733506 -9.903393199088695 0 0 0
1062 1 12.211829568425616 13.282470691895105 -8.685292923755277 0 -1 0
1827 1 11.39269254417715 10.55244157151448 -9.419266765722117 0 0 0
1590 1 12.785340804499034 12.085643008669274 -10.864208427040252 -1 0 0
35 1 12.149608661800029 12.742161709592908 -13.380837629010754 0 0 1
1815 1 8.783325586474001 11.238525587805418 -8.22590215667171 0 0 0
1860 1 13.53527564259812 10.943904099746687 -12.927291193168507 0 0 0
1856 1 13.510494454161671 11.194478843805 -8.28791271296323 0 0 0
1859 1 14.259402101368634 13.57961404563614 -12.438275471801308 0 0 0
1833 1 14.18434020405646 9.977257496834968 -10.35666312827193 0 0 0
951 1 -10.077855220257387 -9.245194214368826 -7.394243034852855 0 0 0
934 1 -12.286096714560607 -13.263973469610049 -6.557227322829761 0 0 0
948 1 -12.669505672377188 -12.05568021023779 -4.396715291486487 0 0 0
949 1 -11.425719777073077 -10.622263825809194 -5.9379147915705985 0 0 0
950 1 -13.595157024256803 -11.141807450818622 -7.01160321032626 0 0 0
957 1 -10.119739315950959 -12.644951001773755 -5.472984167228269 0 0 0
1003 1 -9.314027302391935 -10.058735842092368 -4.854444476590157 0 0 0
947 1 -10.675276119937832 -11.36446291926246 -3.3481042575264723 0 0 0
955 1 -9.369486433058713 -13.411388265723582 -2.8433753298649513 0 0 0
944 1 -12.028544836502233 -9.456244512498067 -3.9482482209680985 0 0 0
993 1 -9.823602041020742 -8.719884871414296 -2.7572331089473057 0 0 0
1261 1 -14.055104300531658 -9.960185199072237 -4.865326185968835 1 0 0
995 1 -12.708509094796561 -8.518102564241133 -6.490478284647496 0 0 0
1677 1 -14.25386521136699 -13.56832592227253 -2.983819470818238 0 1 0
938 1 -9.521464222694393 -13.857936499140894 -7.593985433395237 0 0 0
958 1 -8.84757283589992 -11.215234737935127 -7.082254696153323 0 0 0
956 1 -8.035591531035386 -12.007225295281863 -4.3567468286500795 0 0 0
965 1 -5.324145526846893 -12.667302174823472 -5.592689763406337 0 0 0
966 1 -7.501017218309954 -13.238965363135948 -6.4496343733139145 0 0 0
1013 1 -4.5372380477125205 -10.002308871256778 -4.924193221365984 0 0 0
1014 1 -6.599928469506556 -10.630487196015661 -5.947089994611951 0 0 0
1026 1 -3.9455378865925628 -11.279874157869083 -7.035195358631729 0 0 0
1002 1 -7.249614935408914 -9.464918245452363 -3.898925075955697 0 0 0
1015 1 -5.151976275991336 -9.091145746267301 -7.4423099633958305 0 0 0
1012 1 -5.87224880851932 -11.48409061515036 -3.314842050498946 0 0 0
964 1 -4.5096188446558045 -13.609951867547425 -2.9964378793620483 0 0 0
1094 1 -5.2001794585181145 -8.854979016315355 -2.7662423159830567 0 0 0
1005 1 -7.8872999434325735 -8.645438071496748 -6.412453165032022 0 0 0
1024 1 -3.2192198165944905 -12.073322480469214 -4.46288483535063 0 0 0
1108 1 -3.0539309819470386 -8.419110721694853 -6.525553464601463 0 0 0
973 1 -2.7072176126151763 -13.35003716257461 -6.584984187377569 0 0 0
1025 1 -1.8688013012655578 -10.548472065691268 -6.115429273732686 0 0 0
1035 1 -0.6475480571070662 -12.660281468722756 -5.524872889921033 0 0 0
1036 1 0.931346228286122 -11.207947215560626 -6.97739464227186 0 0 0
1117 1 0.33445265105178734 -9.947809750219875 -5.017803913416664 0 0 0
1034 1 1.511371120332937 -12.11175558236143 -4.359841434541147 0 0 0
1106 1 -2.3235527622238443 -9.338460103538937 -3.8751045025549313 0 0 0
1119 1 -0.3408871689866899 -9.097723671571915 -7.457064877500277 0 0 0
1023 1 -1.0456898588534749 -11.351640056793892 -3.594840471897239 0 0 0
1033 1 0.19531340131978148 -13.632756146132103 -2.9859789958051763 0 0 0
1118 1 1.7410932365254848 -8.574079489613872 -6.416730845084675 0 0 0