LAMMPS data file via write_data, version 2 Aug 2023, timestep = 0, units = metal

1866 atoms
3 atom types

-14.378045512769226 14.378045512769226 xlo xhi
-14.226230523959964 14.226230523959964 ylo yhi
-13.451774506795518 13.451774506795518 zlo zhi

Masses

1 55.847
2 1.008
3 1.008

Atoms # atomic

85 1 -12.112941784786768 -13.295512902352758 -11.820703359650377 0 0 0
53 1 -9.598930100296734 -13.517333308755132 -12.476674593859203 0 0 0
86 1 -10.731215800284932 -11.903982694815097 -10.159812834892069 0 0 0
210 1 -3.4651596506419473 -0.5650030454180275 -2.9861485734830353 0 0 0
76 1 -8.325942320292164 -12.092727671851364 -10.85238468367195 0 0 0
54 1 -7.031619542680196 -13.644770303111763 -12.858585797260664 0 0 0
46 1 -5.928508162592243 -12.298912710855866 -11.164974607449384 0 0 0
47 1 -3.5293489453261078 -12.415751430175856 -11.713536164926005 0 0 0
1064 1 -0.10738853250048486 -6.401725630971271 -0.9575284739424443 0 0 0
985 1 -0.9920841119029511 -12.537327882847155 -12.204282766715556 0 0 0
1310 1 -12.807588504726896 -10.942099861874219 -12.00876534436325 1 0 1
130 1 -11.315460417564546 -9.560454059981547 -10.260270768743338 0 0 0
418 1 -10.314992441873521 -11.087906665740858 -12.49557763361961 0 0 1
77 1 -8.888515592690386 -9.643064983474417 -10.97581595511272 0 0 0
87 1 -10.935308869395612 -8.794959725218717 -12.749105891637019 0 0 0
55 1 -7.854203059600858 -11.264037146532797 -13.14179924073931 0 0 0
78 1 -6.510277529902568 -9.876224276807246 -11.448064157856138 0 0 0
88 1 -8.656273318737565 -8.87872558979387 -13.284867779435677 0 0 0
48 1 -4.16039497859804 -9.934327934654803 -12.003071600167392 0 0 0
71 1 -2.8586276786229057 -8.790311505972035 -10.351338630573608 0 0 0
49 1 -1.801216847229842 -10.253518152476108 -12.285769756922317 0 0 0
45 1 -0.4959149614645071 -8.912385940810049 -10.798056152739886 0 0 0
44 1 -2.202223582378611 -11.162148973104854 -10.045146612632063 0 0 0
138 1 -13.338623119947632 -8.570689226732103 -12.096235192743213 0 0 0
131 1 -11.969705247234032 -7.294596520152199 -10.614577539934354 0 0 0
189 1 -14.069341563052047 -6.123680310430073 -12.366893336252138 0 0 0
139 1 -11.629306571171597 -6.403033705143559 -12.78225441936796 0 0 0
132 1 -9.595627216372769 -7.366402633181456 -11.208742424889165 0 0 0
25 1 -14.150357950594925 -4.469849232748558 -0.1812378938173964 0 0 0
79 1 -7.171084588122894 -7.508172491112768 -11.533578881228586 0 0 0
80 1 -4.818167094971711 -7.612464304855511 -12.208616922356782 0 0 0
72 1 -3.4878708482636274 -6.277526724255494 -10.511566882975647 0 0 0
50 1 -2.4147018259524557 -7.892868667201518 -12.771999318028957 0 0 0
73 1 -1.151515413509573 -6.579172146775159 -11.098652179227884 0 0 0
185 1 -12.91274382591293 -1.4076239000767004 -13.36167837469715 0 0 0
183 1 -12.72832073660655 -4.8429551034260125 -10.789461163875421 0 0 0
299 1 -12.360669316211789 -3.869335671697147 -13.219353213789535 0 0 1
133 1 -10.396312962597456 -4.976623510157536 -11.369262251210014 0 0 0
134 1 -8.03489991215368 -5.092775486579233 -12.03179859151239 0 0 0
125 1 -6.730253293295753 -3.9141627771284515 -10.237599056818748 0 0 0
136 1 -6.21854568993437 -2.997749913367061 -12.421223908428022 0 0 0
82 1 -3.0534313205344557 -5.45858593505751 -12.8013523958434 0 0 0
81 1 -5.5021055756826325 -5.285879039385801 -12.377785091975237 0 0 0
126 1 -4.197376526678569 -3.896156918034208 -10.795378245200673 0 0 0
83 1 -3.7016317109866055 -3.037151090929145 -12.971139977039186 0 0 0
74 1 -1.7724864623895247 -4.185922888566667 -11.138591030087056 0 0 0
192 1 -11.687605476979114 -0.25092998843673975 -11.672235628974965 0 0 0
540 1 -13.533897406728961 -2.397297367519405 -11.070715353382102 0 0 0
523 1 -14.108444348030945 -13.448660172386576 -5.080320441408222 0 1 0
243 1 -6.39443708070257 -1.3170805009089328 -0.4236590578635404 0 0 0
191 1 -11.053894087212498 -2.5976774238172666 -11.513925220739152 0 0 0
193 1 -9.327802809903368 -0.3670015378310172 -12.221513152433102 0 0 0
135 1 -8.664194405202444 -2.713266593533353 -12.061748209288464 0 0 0
137 1 -6.824514336909588 -0.5016020420067999 -12.781018841637053 0 0 0
188 1 -7.413362021339796 -1.4396487260542834 -10.322395854156373 0 0 0
127 1 -4.9435796798637845 -1.59689423299956 -10.900167002148788 0 0 0
454 1 -4.343146134981669 -0.736407430234987 -13.132422333863804 0 0 1
52 1 -0.5554356802384213 -5.533829173166136 -13.417506482687596 0 0 0
9 1 -2.473934882956563 -1.7995576160129971 -11.419434383039938 0 0 0
117 1 -13.743998358368643 -12.666799992874287 -7.377897865687928 0 0 0
128 1 -13.219204478575241 -11.691408822991303 -9.728479525788817 0 0 0
42 1 -4.497049002242022 -14.149136123556463 -7.053181856778585 0 0 0
75 1 -11.22276350510167 -12.762477523851956 -8.059898403716602 0 0 0
66 1 -8.872735990036107 -12.907703821454605 -8.512419408902105 0 0 0
67 1 -6.3776161773571065 -13.176390945530656 -8.941401757645515 0 0 0
109 1 -7.615921385362969 -11.522537273144401 -6.891021224537286 0 0 0
43 1 -3.9492642697811373 -13.343946679250159 -9.252313346827957 0 0 0
61 1 -5.1477640531142 -11.744056448934362 -7.3048436507241465 0 0 0
26 1 -14.251532245799352 -7.291363701429822 -3.9065774803513236 0 0 0
991 1 -2.729365601390322 -11.829925837481348 -7.696434117452174 0 0 0
39 1 -1.5382838176555769 -13.500662655797854 -9.911461888029658 0 0 0
988 1 -0.4004047451530788 -12.031926767741716 -8.25626468997148 0 0 0
129 1 -13.79655074146106 -9.4216138150945 -9.96240393263701 0 0 0
119 1 -11.808493982197145 -10.343725602009107 -8.024287395274047 0 0 0
36 1 -3.874148309865017 -1.525707563287261 -0.6982787939728112 0 0 0
120 1 -9.31771276314782 -10.430318534327613 -8.629632234023962 0 0 0
68 1 -6.959284941951848 -10.821726241849936 -9.185259059997014 0 0 0
110 1 -8.158325446390853 -9.19277997323675 -6.98979343607734 0 0 0
111 1 -5.837576421552839 -9.318889460672562 -7.599572760137357 0 0 0
62 1 -3.312911616061136 -9.57320949975987 -8.057794196087935 0 0 0
69 1 -4.5334663618364015 -10.916290649299253 -9.651902296558195 0 0 0
102 1 -0.9057695202625453 -9.652195409848222 -8.470374510723879 0 0 0
182 1 -12.647071860198988 -7.941991668054341 -8.31165609982715 0 0 0
121 1 -10.123141054602783 -8.127954680210319 -8.886859603917397 0 0 0
177 1 -8.860176309501007 -6.808096718209466 -7.245284850142821 0 0 0
184 1 -10.877961731926128 -5.965216891496418 -8.920961912442593 0 0 0
176 1 -11.320353252625686 -6.530458954050403 -6.625098232172551 0 0 0
124 1 -5.949281561145408 -6.1421272528570725 -10.068474878060155 0 0 0
122 1 -7.659576056111505 -8.40249884731993 -9.320099829254017 0 0 0
123 1 -8.367151216758455 -5.877812495500773 -9.706830388343155 0 0 0
112 1 -6.457837597854444 -7.134199782557342 -7.697697483906615 0 0 0
70 1 -5.165509279806459 -8.515533429205231 -9.848129049738064 0 0 0
113 1 -4.003843846424191 -7.267772894399226 -8.105302281874128 0 0 0
65 1 -1.6939475250481877 -7.300034216266642 -8.703207027038847 0 0 0
104 1 -0.3734407711370089 -5.989264791043064 -7.055613436289883 0 0 0
1115 1 -13.262033519341117 -5.679802001902553 -8.53012935781554 1 0 0
1146 1 -13.898517496745107 -3.345727278186555 -8.723041553785489 1 0 0
220 1 -12.02892942737397 -4.2181489549829685 -6.918949054170267 0 0 0
228 1 -11.443452565809343 -3.4344156186601307 -9.194833743602999 0 0 0
186 1 -9.071969664294016 -3.542731390130635 -9.59010396082375 0 0 0
178 1 -9.647823835301878 -4.453263134985111 -7.5311791474942815 0 0 0
179 1 -7.11097857796466 -4.641352031784336 -7.929260365278002 0 0 0
114 1 -4.634407288163455 -4.91116220356651 -8.268049532400543 0 0 0
171 1 -3.4977244515734434 -3.3486757053849416 -6.833805801406527 0 0 0
115 1 -2.3364774536771176 -5.0059768238380205 -8.912259688274307 0 0 0
105 1 -1.0767580873359321 -3.676997408877936 -7.406630904968888 0 0 0
233 1 -12.177200909111402 -0.9852761683834732 -9.289337374558574 0 0 0
232 1 -12.76638849964942 -1.8500584382319012 -7.076159163261532 0 0 0
187 1 -9.770085860143 -1.1819534883578662 -9.93276961682555 0 0 0
226 1 -10.250788333636859 -2.0077064359569743 -7.579306862500375 0 0 0
200 1 -1.4285701761763914 -1.6745628866080704 -1.4243624529090777 0 0 0
180 1 -7.796543936385151 -2.2135704430064074 -8.04892019801172 0 0 0
181 1 -5.410938086121238 -2.4371497469776155 -8.670098751544959 0 0 0
172 1 -4.11237404389972 -1.1227569005858697 -7.140227171656721 0 0 0
14 1 -3.5075071080412297 -0.23665646646491467 -9.241667686559126 0 0 0
116 1 -3.0922121875299933 -2.6804068274891133 -9.119587809472009 0 0 0
7 1 -0.5723284496161849 -2.8728985445785025 -9.651899203964952 0 0 0
8 1 -1.1131395603269567 -0.4676456503990938 -9.772390575305629 0 0 0
13 1 -1.588211280422465 -1.4425105873933806 -7.583551861678808 0 0 0
40 1 -4.700249293306404 -13.858037412924977 -13.291754650794417 0 0 0
106 1 -11.800422179910312 -13.614569835953565 -5.80438542206973 0 0 0
162 1 -12.921123983812768 -12.033789041679388 -3.594153498780125 0 0 0
151 1 -10.542332554325272 -12.292816643708463 -4.163911043364996 0 0 0
107 1 -9.351371834826956 -13.779510985531605 -6.096697219664125 0 0 0
108 1 -9.939606243099576 -11.407495818670908 -6.396881318924277 0 0 0
60 1 -6.987741740964896 -13.976015274839925 -6.711196570475966 0 0 0
97 1 -8.054396785881753 -12.434805586174292 -4.519274401839805 0 0 0
98 1 -5.8725533054057415 -12.447963602228604 -5.0587679679272615 0 0 0
57 1 -3.4057768844737097 -12.76225926911344 -5.542597634512289 0 0 0
11 1 -1.28677128256329 -13.941007011572031 -3.876963922378481 0 0 0
58 1 -0.8067663249827532 -12.93580110453369 -6.020323451101302 0 0 0
93 1 -1.9948630615528167 -11.510157460920563 -4.0774582821712535 0 0 0
173 1 -12.458790858822342 -11.275512287455555 -5.789311289260774 0 0 0
214 1 -13.638702310308199 -9.674548925126615 -3.6885056868338584 0 0 0
223 1 -13.252894323661469 -8.880788499229181 -6.0099243943223 0 0 0
175 1 -10.595271690453043 -8.921336403980078 -6.512062934831121 0 0 0
164 1 -11.189231855569739 -9.827139859318866 -4.210651711212357 0 0 0
165 1 -8.75586281192092 -10.110095455707224 -4.675833341506294 0 0 0
99 1 -6.334280766996516 -10.158319475442166 -5.201259987411795 0 0 0
100 1 -3.9145841907975907 -10.406426319962897 -5.731218787208325 0 0 0
156 1 -4.998249129089528 -8.975686442094034 -3.6315695043187084 0 0 0
92 1 -4.317377624151302 -11.442647299902735 -3.491766584723903 0 0 0
95 1 -0.15298476983295473 -9.306585018400131 -4.603073165907013 0 0 0
94 1 -2.5992967766932047 -9.119556077138288 -4.183484441286879 0 0 0
59 1 -1.2434900226526011 -10.5361704837127 -6.243902654448501 0 0 0
230 1 -13.729040161550236 -6.431542403240846 -6.241888522001788 0 0 0
216 1 -11.907107916790432 -7.4858063086092 -4.427829597818418 0 0 0
602 1 -5.999421136288353 -0.1036478085562127 -8.801169207528204 0 0 0
166 1 -9.43327041146207 -7.709006769578549 -4.825557388798879 0 0 0
167 1 -7.020712491831257 -7.680438089395176 -5.3492255017809995 0 0 0
157 1 -5.729828097971799 -6.469743555220608 -3.6641431901172563 0 0 0
101 1 -4.614507718752455 -8.011191907905324 -5.947281994984081 0 0 0
158 1 -3.3586906898596975 -6.601848581175149 -4.365128402400806 0 0 0
103 1 -2.9241304404427346 -5.865597414306796 -6.573859656971443 0 0 0
63 1 -2.010425011982152 -8.250684721113297 -6.411392453599662 0 0 0
96 1 -0.7579375421165491 -6.847291483834824 -4.8112910930002055 0 0 0
21 1 -12.680544984437413 -5.08038248168498 -4.480152582599146 0 0 0
225 1 -10.167141600392021 -5.207430382047866 -5.081940216596582 0 0 0
218 1 -8.831662284828333 -3.902538124593228 -3.5056426514121295 0 0 0
227 1 -10.708811829286057 -2.906409303498851 -5.35070458691782 0 0 0
168 1 -7.773043813165426 -5.47190861906525 -5.526388744858625 0 0 0
219 1 -6.32175841468416 -4.03056889558019 -4.034760925892355 0 0 0
231 1 -8.228108576917986 -3.101658514565946 -5.81343040635987 0 0 0
170 1 -5.929134506129122 -3.2242256777876133 -6.280143863237235 0 0 0
169 1 -5.3484388421633415 -5.648191388520782 -6.136275303472637 0 0 0
159 1 -4.018044443864936 -4.351930033840604 -4.472626282463809 0 0 0
160 1 -1.5821044299705065 -4.621808369535321 -5.05726482882166 0 0 0
150 1 -0.20715263100709436 -3.2285577159821077 -3.533396057905481 0 0 0
23 1 -13.235153762691485 -2.664459762862281 -4.8086516241384505 0 0 0
697 1 -13.874659411703602 -0.4453196608754908 -4.989367379768705 0 0 0
22 1 -11.277943414031764 -0.6125498449239064 -5.504660065790702 0 0 0
253 1 -9.618641943429369 -1.4544308713479701 -3.6364401860683717 0 0 0
696 1 -8.894639806311481 -0.6909179749667071 -5.898787580262128 0 0 0
229 1 -6.5436774423911395 -0.8792050587394353 -6.500295148577822 0 0 0
27 1 -7.075351034356572 -1.6591824936349067 -4.132759395377507 0 0 0
221 1 -4.628524844208252 -2.0095785594395803 -4.730658206576917 0 0 0
15 1 -0.8433548172076328 -0.8464522166240265 -3.6525437920178287 0 0 0
161 1 -2.2118980110046476 -2.1029119363255635 -5.248780916471455 0 0 0
211 1 -13.325184515045493 -12.830398483109294 -1.2445029277785817 0 0 0
247 1 -7.5973889571687145 -2.7539097309979663 -1.8939202752853692 0 0 0
519 1 -10.831952238874978 -13.176698757276935 -1.7384665885783193 0 1 0
152 1 -8.548656185308252 -13.425815506471524 -2.3051767296521 0 0 0
90 1 -6.08623579477165 -13.55410665851808 -2.827487328254268 0 0 0
142 1 -7.2998889204902655 -11.99732317458823 -0.6549458959105916 0 0 0
91 1 -3.718641218712767 -13.61574866649571 -3.249948697389394 0 0 0
144 1 -4.86118310099601 -12.348136459945536 -1.1575123698898295 0 0 0
4 1 -2.35212972456363 -12.405076414229216 -1.8405125484606124 0 0 0
371 1 -9.714269880486588 -11.878517901412735 -0.07885707638763328 0 0 0
212 1 -14.074237545641097 -10.577980137782864 -1.4597687584025767 0 0 0
213 1 -11.787845629282959 -10.684235433944732 -1.8047406910070052 0 0 0
201 1 -10.281864293377021 -9.44215748014359 -0.2023115880503692 0 0 0
153 1 -9.357470129800365 -11.046328932750688 -2.4685355910701396 0 0 0
155 1 -7.439667463797486 -8.7800190138115 -3.1733572828164256 0 0 0
154 1 -6.829140359798291 -11.248258913576876 -2.9371231060037335 0 0 0
143 1 -7.894454932510419 -9.755196165982525 -0.8517858869502533 0 0 0
145 1 -5.4219538273329775 -9.799109236105064 -1.39896318398225 0 0 0
146 1 -3.1278178848700584 -9.999660176952716 -1.995587278376382 0 0 0
208 1 -5.089584307656189 -2.781674570826141 -2.3702795906691936 0 0 0
3 1 -0.7175415671937557 -10.21897476446097 -2.371686813336261 0 0 0
1 1 -1.8694525215637352 -8.625194448474325 -0.08589247040817583 0 0 0
33 1 -12.249216945282981 -8.33230436234507 -2.1415210300058547 0 0 0
32 1 -13.059522496134838 -6.0027998394881 -2.3706905918627754 0 0 0
215 1 -9.921608006485581 -8.599494944270672 -2.6206572145862133 0 0 0
202 1 -11.024934416917553 -7.039168286370684 -0.581703767528758 0 0 0
31 1 -10.619271869250808 -6.143881258793369 -2.7845485677915516 0 0 0
203 1 -8.648961215980393 -7.2789964039927435 -1.1083115797313994 0 0 0
217 1 -8.223532067339963 -6.252423916517025 -3.3514562973598796 0 0 0
205 1 -6.179361192076955 -7.514588105219581 -1.4633118721688874 0 0 0
147 1 -3.682618425747032 -7.606772607643602 -2.0956214491667176 0 0 0
197 1 -2.4287812125730106 -6.223224930257096 -0.48946432949849417 0 0 0
148 1 -1.3474232583071526 -7.7204419267075295 -2.6088715399125615 0 0 0
5 1 -0.03492573080636774 -1.892038001053443 -11.850519592293313 0 0 0
683 1 -13.747943800748683 -3.6304287154371835 -2.5406639649623575 0 0 0
285 1 -11.75701373433348 -4.594645545747527 -0.7034739963698566 0 0 0
38 1 -5.537855426379137 -3.6590189450666486 -0.17212769494764224 0 0 0
24 1 -11.275025560726792 -3.772770775769178 -3.1182395857489666 0 0 0
204 1 -9.408052503750412 -4.839565496040981 -1.1394083665136563 0 0 0
206 1 -6.897199022342361 -5.115425552753171 -1.5344969768049772 0 0 0
2 1 -1.103018013761524 -11.029731784932633 -0.07926993192524634 0 0 0
207 1 -4.475981784941965 -5.198378394283992 -2.2424848505955772 0 0 0
198 1 -3.1410873980493434 -3.8065455979694445 -0.6214291804710435 0 0 0
209 1 -2.6410569294186512 -2.9389810216702728 -2.9165768713274964 0 0 0
199 1 -0.7639167841847527 -4.091676343056074 -1.2458314267102324 0 0 0
149 1 -2.0233142722061395 -5.310177789873977 -2.7163523469163557 0 0 0
16 1 -12.379262156737392 -2.3192041280388693 -1.0221252380325385 0 0 0
695 1 -11.986918643416116 -1.329816987072002 -3.210263081681168 0 0 0
84 1 -12.550279247714252 -14.092906873774753 -9.540148377052649 0 0 0
18 1 -10.036293174221377 -2.441866385331343 -1.4636471277320489 0 0 0
1445 1 -14.152534567470132 -0.010985231723957156 -11.287588996685773 1 0 0
56 1 -5.4803720861363185 -11.359189034818591 -13.428422312747642 0 0 0
196 1 -4.988102608023651 -6.0927675970655155 -0.048293748379094836 0 0 0
372 1 -12.589310816835479 -12.521365029837723 2.66546636621956 0 0 0
827 1 -13.845114357721695 -13.977450389709887 1.0767382606152545 0 1 0
374 1 -12.099474864255297 -11.666009422638547 0.44568145515458824 0 0 0
826 1 -11.403969481101537 -14.081247790414812 0.5729022927755825 0 1 0
366 1 -10.0409662076381 -12.868888928023257 2.2065301178793266 0 0 0
825 1 -7.689704572793865 -12.901666546360557 1.6782501936813414 0 1 0
355 1 -6.463575919836875 -11.670414095484348 3.249441322161891 0 0 0
835 1 -5.372068547250352 -13.115320506613648 1.0194008689879475 0 1 0
403 1 -4.101834195820031 -11.80690139410933 2.6422047079283626 0 0 0
869 1 -3.47723206459718 -14.139715955979563 2.801445793983282 0 1 0
352 1 -2.873138342648147 -13.247327380740732 0.47858007355709375 0 0 0
867 1 -1.6435535476779943 -11.828357130388973 2.2851969964729015 0 1 0
10 1 -0.4100900758933861 -13.293516799954693 0.20219130311329003 0 0 0
12 1 -1.893024876462345 -0.9367075834531953 13.273351147268356 0 0 -1
367 1 -13.267955604509728 -10.2041311768516 2.4306520468861024 0 0 0
328 1 -12.708141675814115 -9.242726698871586 0.07515310886883775 0 0 0
324 1 -10.797247188011875 -10.370740206230236 2.0152935087300303 0 0 0
365 1 -8.459834627665842 -10.466549223483373 1.4609441053678989 0 0 0
356 1 -7.103623483667007 -9.105239898623717 3.0882587503334324 0 0 0
364 1 -6.026230204680681 -10.647057925757816 0.9539464084784797 0 0 0
354 1 -4.727415237755475 -9.305453062368809 2.5542671830493315 0 0 0
363 1 -3.658694113764536 -10.926148604370248 0.3320516105763751 0 0 0
340 1 -2.3682654134391914 -9.551726624549323 2.175402315832848 0 0 0
1248 1 -13.95721488037053 -7.797183681622177 2.1154528040615617 1 0 0
281 1 -11.544819856044773 -7.950655722686406 1.7159671812383834 0 0 0
456 1 -1.551476779147837 -0.02511658562489849 10.87134436186786 0 0 0
325 1 -9.098740995408676 -7.961370773658639 1.2461691290947954 0 0 0
279 1 -9.807978063685159 -5.645779134342787 1.208798178009026 0 0 0
315 1 -6.675071551503191 -8.3339929255948 0.7619510246999095 0 0 0
323 1 -7.725428518660056 -6.782421902760747 2.835417792479488 0 0 0
277 1 -7.297688486005973 -5.919378900459066 0.6520424948669756 0 0 0
195 1 -4.326048386758902 -8.394549481833106 0.25170059322389626 0 0 0
314 1 -5.3409460290990705 -7.005504290131878 2.3645860732476436 0 0 0
302 1 -2.931150039173936 -7.08721004382809 1.9674620221051171 0 0 0
235 1 -5.066072351399644 -0.03325940234503122 1.378270895752241 0 0 0
301 1 -0.44023859539368715 -7.123494368299154 1.452891764363363 0 0 0
288 1 -1.6751630731240397 -5.876272916955202 3.4437182844181873 0 0 0
249 1 -12.189005309763903 -5.505334041728991 1.5477910250471023 0 0 0
252 1 -12.844848821121392 -3.0359174927086503 1.3273349811162038 0 0 0
280 1 -10.45200091531926 -3.2102430526752137 0.9102986269382676 0 0 0
272 1 -11.030659668210419 -4.09397311349584 3.100954759739773 0 0 0
270 1 -8.433833918885739 -4.433038258267141 2.783919726878553 0 0 0
268 1 -6.078153787811461 -4.623705565817149 2.167758889973106 0 0 0
278 1 -8.02506912516133 -3.552843465145381 0.3908519942824249 0 0 0
266 1 -3.6720808337438733 -4.7999406025541145 1.7048244155726238 0 0 0
254 1 -1.2180286789490928 -4.878890904910955 1.1188492369334178 0 0 0
289 1 -2.332876812915048 -3.4937231471414023 3.2353849738377196 0 0 0
250 1 -13.589358830866574 -0.7458031598701211 1.1564522742756704 0 0 0
244 1 -11.596388086445977 -1.7618754316716831 2.907186116146713 0 0 0
30 1 -11.219174397489441 -0.8666617496502429 0.6166229682788487 0 0 0
242 1 -9.152362909085058 -2.0950635475843136 2.464655368732652 0 0 0
442 1 -0.8458748391277879 -2.364359936406867 11.17066009992786 0 0 0
269 1 -6.743895081108567 -2.140168635665523 1.9541856303511445 0 0 0
267 1 -4.312456273443823 -2.3310508515402546 1.4353172857466543 0 0 0
255 1 -3.024687318306352 -1.0383419681171073 3.074308618314495 0 0 0
1628 1 -0.14713587197495492 -0.3977468949688756 0.1385709330687348 0 0 0
424 1 -1.8987752085690612 -2.440897400878727 0.8056912732245678 0 0 0
1395 1 -0.6046510922337145 -1.2750628892224043 2.505039178636446 0 0 0
286 1 -13.536506997977071 -6.878024749606069 0.04909517480671788 0 0 0
240 1 -2.5625178390985575 -0.1923077932438897 0.8402419591846648 0 0 0
368 1 -13.07080084140332 -13.30064352865542 4.8773142451913305 0 0 0
406 1 -11.866542759594669 -12.084514761604089 6.50633189428641 0 0 0
397 1 -9.4368991532262 -12.141290003763196 6.084669456632993 0 0 0
405 1 -10.676976102343833 -13.585804337050575 4.501623201187483 0 0 0
357 1 -8.830427041614037 -11.299083360665108 3.8059472245459762 0 0 0
404 1 -8.230244793968069 -13.823391669718157 4.050414956373666 0 0 0
395 1 -7.020928256783409 -12.378483121556838 5.629371706738288 0 0 0
830 1 -5.9188561922787635 -13.973837333647591 3.4693611588791615 0 1 0
394 1 -4.609299254504695 -12.589790369095395 5.002584336576431 0 0 0
382 1 -2.1797876688465223 -12.582133672944543 4.584188230983413 0 0 0
850 1 -0.14516357972624228 -13.730271524118622 6.273828867314757 0 1 0
1170 1 -0.8961952574474559 -11.37613129210535 6.2738754696895445 0 0 0
326 1 -13.713050773918873 -10.945503721243517 4.743727173713674 0 0 0
359 1 -12.511723701828569 -9.601800218117049 6.3178563863993045 0 0 0
308 1 -12.04898147688707 -8.846392104469416 4.118062309443745 0 0 0
358 1 -11.205657567925778 -11.176048201419713 4.26883430425857 0 0 0
317 1 -9.631706785447463 -8.934015299422242 3.48053495094266 0 0 0
346 1 -10.117905216573604 -9.86391067137923 5.865294557993723 0 0 0
344 1 -7.713492810368266 -9.983156246954582 5.393051496483251 0 0 0
342 1 -5.285872768447939 -10.177826094774979 4.73524353725101 0 0 0
385 1 -3.9912090611005624 -8.919259443055324 6.41926028318351 0 0 0
384 1 -3.396312093099395 -11.14611947513784 6.703841016164075 0 0 0
383 1 -2.857039607905394 -10.442698371112805 4.462899275271232 0 0 0
1169 1 -0.3737591320137703 -10.466188052746576 3.9954752639551767 0 0 0
1330 1 -1.5952071840335051 -8.988517147598534 5.987592648685977 0 0 0
360 1 -13.03365487751277 -7.199891802544893 6.116563120401809 0 0 0
282 1 -12.667787727235766 -6.370331422405561 3.7834517047452625 0 0 0
318 1 -10.224444346837819 -6.599727583809457 3.4261681471894807 0 0 0
306 1 -10.773087038862004 -7.415932277737331 5.768201145361788 0 0 0
304 1 -8.44083332842543 -7.69699873367782 5.199992161437445 0 0 0
305 1 -5.922422134997754 -7.684662221199334 4.705872279877854 0 0 0
345 1 -7.026065567887869 -6.344448663290247 6.7795462512789175 0 0 0
341 1 -3.5641964946397025 -8.052773836482551 4.123932199153332 0 0 0
343 1 -4.644542515246794 -6.320916718899217 6.188499075652752 0 0 0
1167 1 -1.1090453067975616 -8.198916209458652 3.8743216692885856 0 0 0
331 1 -2.2551732906613857 -6.644191948652802 5.844667611292069 0 0 0
1242 1 -13.372762798771248 -4.104935201495547 3.7138912982994743 1 0 0
320 1 -13.79628432023487 -4.951595969631882 6.091660425690145 0 0 0
319 1 -11.411144872172365 -4.986711984124257 5.385637519729853 0 0 0
307 1 -8.921940860463641 -5.231181751109107 5.004070930396038 0 0 0
316 1 -6.5590620217995 -5.337520113184668 4.5323754519108785 0 0 0
260 1 -7.744494099752612 -3.8984496473765287 6.569271129346644 0 0 0
258 1 -7.201961230858599 -2.9130369583318583 4.324760796038101 0 0 0
303 1 -4.195737537440216 -5.541489751467026 3.9029707303127648 0 0 0
292 1 -5.247226241521371 -4.042003479985757 6.12336638677238 0 0 0
256 1 -4.709428254842459 -3.194001018234708 3.881021417935452 0 0 0
290 1 -2.7566205199904914 -4.228080241162248 5.5377527047961355 0 0 0
330 1 -0.4534046242204468 -4.326385867737386 5.159175266063366 0 0 0
251 1 -13.94568854945322 -1.6308421667605923 3.4196520625300213 0 0 0
273 1 -12.16346680841718 -2.5999192289202693 5.153122716165699 0 0 0
245 1 -12.69092632540332 -0.330381957982393 4.980174830284904 0 0 0
271 1 -9.678130995347288 -2.8876262728008335 4.794019661784974 0 0 0
237 1 -10.34124552919521 -0.5650282924719612 4.538500011490422 0 0 0
259 1 -8.480352045963794 -1.493273168848825 6.417933029569971 0 0 0
236 1 -7.904892321533978 -0.6046899929288134 4.08694871345376 0 0 0
257 1 -5.862208363329094 -1.710253195694989 5.9220877415847095 0 0 0
799 1 -5.471517481236104 -0.8160663555570711 3.6372622264215746 0 0 0
463 1 -3.4205810630196876 -1.8637358198849725 5.482804266010243 0 0 0
1391 1 -1.2083826103973916 -2.0658434758582356 4.907865755753507 0 0 0
37 1 -8.704655496475118 -1.0687296453482187 0.17644350901601946 0 0 0
1311 1 -12.335429106172388 -12.821225478026694 8.887308168629323 1 0 0
398 1 -9.899324876646851 -12.95231263428515 8.351517046106887 0 0 0
390 1 -8.56503590043276 -11.66051937910605 9.96551937284506 0 0 0
862 1 -7.477717472539566 -13.20707059049585 7.880556126214552 0 1 0
416 1 -6.188017982297053 -11.908135666865398 9.38011811821393 0 0 0
415 1 -3.7476474411319245 -12.04901024737136 8.973887730512216 0 0 0
860 1 -5.09365381547261 -13.383494827431802 7.378476977107285 0 1 0
856 1 -2.7037767466365175 -13.585918541763707 6.93082159730565 0 1 0
414 1 -1.327828231178989 -12.23832773087714 8.501798898045395 0 0 0
1291 1 -12.99970623326517 -10.52280177354791 8.641967462913358 1 0 0
399 1 -10.566039736108506 -10.628582752061954 8.223783235654599 0 0 0
389 1 -9.182461665771712 -9.338861171963561 9.651183707537017 0 0 0
347 1 -8.795976165211329 -8.385978086643213 7.489610880653638 0 0 0
388 1 -8.19574680476375 -10.783800055252705 7.6887104571130624 0 0 0
379 1 -6.821817856941826 -9.502541995326315 9.327475161932872 0 0 0
387 1 -6.467560097549725 -8.683241087404628 6.945900801992339 0 0 0
386 1 -5.750718837030524 -11.050967945578368 7.189232141856129 0 0 0
377 1 -4.475990540925604 -9.599898082910476 8.637900036550297 0 0 0
375 1 -2.006057405015312 -9.94932892626506 8.278005809386555 0 0 0
408 1 -0.03642256447093928 -10.705042498872391 10.121932003667103 0 0 0
312 1 -13.63096661809146 -8.11324114291057 8.375661236431577 0 0 0
310 1 -11.897355992028693 -5.918996846156228 7.7042770275702335 0 0 0
362 1 -11.191160149401291 -8.3054556864423 8.042865324177415 0 0 0
348 1 -10.002848953501164 -6.8656530691645665 9.656622183901922 0 0 0
274 1 -9.463293900970442 -6.116287138424479 7.332193216974867 0 0 0
335 1 -7.4523967087001495 -7.155042800161957 9.029085421842753 0 0 0
333 1 -5.141618771888895 -7.2975370871666 8.487617201420901 0 0 0
429 1 -0.7195424531931156 -8.405075763461216 10.010659306622005 0 0 0
376 1 -2.7774099718594556 -7.542073558502992 8.026226227115169 0 0 0
438 1 -1.3580162959619173 -6.184926892545908 9.687851472289692 0 0 0
428 1 -0.20832323627852922 -7.600422097655967 7.535278621968045 0 0 0
275 1 -12.666798214071086 -3.5527379338363403 7.566825181254201 0 0 0
313 1 -13.121739808600225 -4.442613931731051 9.79969712227343 0 0 0
309 1 -10.204133958122505 -3.6715270838290976 7.138974170731911 0 0 0
311 1 -10.68799105205554 -4.525428036480651 9.42809975740529 0 0 0
294 1 -8.167643439095926 -4.946719951401407 8.84821018806848 0 0 0
334 1 -5.7142000263192845 -4.978457076480561 8.314226708002858 0 0 0
332 1 -3.28246501623998 -5.044277685281809 7.909849094396256 0 0 0
448 1 -4.518485411387456 -3.6044704439851625 10.033699353842279 0 0 0
440 1 -0.8927931945581644 -5.322549463482066 7.359389591062053 0 0 0
450 1 -2.037548411341634 -3.7860078054299215 9.680780008598246 0 0 0
1238 1 -13.304450845174582 -1.1248800355650275 7.391430347085334 1 0 0
1235 1 -13.684099850144412 -2.0102160103551796 9.683924368881184 1 0 0
238 1 -10.944197656264016 -1.3820720936200637 6.932860529570169 0 0 0
264 1 -11.345997871046194 -2.1543516722749008 9.234434255231934 0 0 0
262 1 -8.88117733696275 -2.4455036682596827 8.679650412556919 0 0 0
293 1 -6.501904069522692 -2.5379513849595483 8.162370124073226 0 0 0
291 1 -4.066628490133189 -2.67224772423525 7.765510933362238 0 0 0
447 1 -5.202277448815 -1.2328528522715132 9.87978680311174 0 0 0
460 1 -4.73061485036563 -0.29767493685188384 7.640582947304525 0 0 0
452 1 -1.6053988076605847 -2.952427978445778 7.431128595066442 0 0 0
449 1 -2.7819239486937075 -1.5110462202985229 9.328155038084004 0 0 0
457 1 -0.3297324732587015 -1.5328490575309388 8.728617376533327 0 0 0
461 1 -2.25752951957344 -0.4849572194711751 7.103197902402629 0 0 0
402 1 -13.981372409527989 -12.336554010519475 13.320748668350953 0 0 0
420 1 -12.74557385986495 -13.77882806539991 11.197536920012682 0 0 0
1313 1 -11.516519996479897 -12.439761372640135 12.760309001848588 1 0 0
1298 1 -13.455961335190983 -11.492354476100168 10.948918185974891 1 0 0
419 1 -10.410791586000217 -13.936205443348912 10.609934042766776 0 0 0
417 1 -9.147076092183775 -12.616720491924111 12.187659614209382 0 0 0
400 1 -11.075047021175871 -11.51985517448774 10.443313110353037 0 0 0
412 1 -6.770053613580139 -12.688553878554735 11.778883446887827 0 0 0
854 1 -7.893644544009371 -14.042022354660299 10.164315762127965 0 1 0
410 1 -4.3073455419374405 -12.952681039457726 11.401942645170449 0 0 0
423 1 -3.093052980073578 -11.547523309240734 12.886850657108004 0 0 0
6 1 -1.3896157836169394 -3.2811641981284136 13.442875449859548 0 0 -1
661 1 -2.3256781394461807 -14.003633999402098 13.178937164926444 0 1 -1
422 1 -1.8127659616533354 -13.063897931805391 10.867556076835422 0 0 0
432 1 -0.7293876680324409 -11.772279744174487 12.509344769747889 0 0 0
401 1 -11.756068126719336 -9.214719434268908 10.268576334208012 0 0 0
392 1 -12.247099557719952 -10.297035158072465 12.618523652036545 0 0 0
1261 1 -14.271303659064955 -8.972663957580089 10.747671744984144 1 0 0
391 1 -9.959182720002993 -10.249544609483221 12.084983298852846 0 0 0
381 1 -7.431324185182122 -10.338656071225028 11.501056883683086 0 0 0
413 1 -6.3002123807856485 -8.951484646509424 13.162387578611186 0 0 0