LAMMPS data file via write_data, version 2 Aug 2023, timestep = 0, units = metal

1869 atoms
3 atom types

-14.289314176932866 14.289314176932866 xlo xhi
-14.145402367754677 14.145402367754677 ylo yhi
-13.600415680436496 13.600415680436496 zlo zhi

Masses

1 55.847
2 1.008
3 1.008

Atoms # atomic

1647 1 -11.114020377784485 -11.66783225791424 -11.776259598002511 0 0 0
955 1 -11.913144073362526 -12.193407449927113 -9.082229614787881 0 1 0
1762 1 -13.290410487342456 -10.918627889881225 -10.797382501430555 0 0 0
1524 1 -11.805290194020195 -8.82314131064415 -11.630686972353724 0 0 0
1618 1 -12.709392144707495 -9.51470654354374 -8.881902006070579 0 0 0
1669 1 -10.605197870719401 -10.16804144543123 -9.806246088767779 0 0 0
956 1 -12.459386022433193 -13.7610015764002 -11.070398062849705 0 1 0
1853 1 -13.759158921392322 -12.484214809824758 -12.726354176406815 1 0 0
1763 1 -9.836673601485478 -9.74937715040383 -12.647162645832339 0 0 0
951 1 -9.785229359999152 -12.849151120435582 -10.026822506241578 0 1 0
842 1 -8.846574192400393 -12.53652148969308 -12.762565407957442 0 0 1
1836 1 -14.021916611414127 -11.551064719460374 -8.074142459293034 1 0 0
1745 1 -9.297739741338162 -11.41059787536345 -8.092968888621524 0 0 0
1744 1 -8.531434998386619 -10.961901013384008 -10.848587195149978 0 0 0
1672 1 -5.782825466486917 -10.302728091742052 -9.697164902197963 0 0 0
1765 1 -7.946191861667226 -9.410114252119776 -8.950029002713734 0 0 0
1766 1 -7.202479127352385 -12.167185154891577 -9.07902049569895 0 0 0
850 1 -6.364996130945426 -11.589206285725565 -11.752607042048478 0 0 1
1671 1 -7.1835407647669065 -9.04431958353444 -11.671180139317034 0 0 0
1783 1 -5.059858941699069 -9.6849504541742 -12.488980559158202 0 0 0
1838 1 -4.956985583424581 -12.827280810937413 -9.97768442542323 0 0 0
957 1 -7.618616094693156 -13.605074747377898 -10.948667084710426 0 1 0
779 1 -4.024746504348718 -12.378943682427254 -12.58976740794678 0 0 1
1768 1 -3.7025952910935036 -10.943469306934528 -10.735893093351521 0 0 0
1782 1 -7.716530661843396 -10.49676054734787 13.578398788223199 0 0 -1
1769 1 -3.223767271672939 -9.441897967207002 -8.834079863307679 0 0 0
1748 1 -4.422102072528551 -11.43995876768579 -7.922712886201379 0 0 0
1018 1 -2.821926484440418 -13.63135341341402 -10.887650040752623 0 1 0
1785 1 -2.4522959629714816 -9.083626572717222 -11.601395649752119 0 0 0
1828 1 -2.3539801287312887 -12.086157462586735 -8.921510806640871 0 0 0
1770 1 -1.090900713859126 -10.324647396694498 -9.920101743397199 0 0 0
1839 1 -1.505812933056827 -11.722838515540593 -11.70431074529383 0 0 0
1019 1 -0.34497624741193533 -13.01018162278442 -9.829029519709874 0 1 0
1771 1 1.4848609044338552 -9.54586083946814 -8.832893442507995 0 0 0
1786 1 -0.3119287264693984 -9.720255915748616 -12.50074180708844 0 0 0
1849 1 0.5604414597665066 -12.493461632167909 -12.666176321387619 0 0 0
1840 1 1.081894823195956 -10.942575849433009 -10.831443049018123 0 0 0
1020 1 1.8916805013139033 -13.73030227390121 -10.875285300851482 0 1 0
602 1 1.8226523881458547 -10.422502761957276 -13.395238129619566 0 0 1
1787 1 2.4615501027916693 -8.991811517670248 -11.546453223482207 0 0 0
1829 1 2.3060536867312322 -12.110128035619086 -9.101591599288668 0 0 0
706 1 -2.9395017011981786 -10.468824082666949 -13.57385898258511 0 0 1
1750 1 0.25193470525195316 -11.43580743242574 -8.005543600523676 0 0 0
696 1 -1.9112784109705903 -13.124716176991083 13.421250541733754 0 0 0
1772 1 3.5937841431075945 -10.374690132130409 -9.812767998025102 0 0 0
1788 1 4.423168598751566 -9.768220002755339 -12.494285713759473 0 0 0
1830 1 4.445236750606792 -13.022114608300981 -10.117473237931266 0 0 0
1842 1 5.822193756756956 -10.962041168901212 -10.849796943131391 0 0 0
1850 1 3.2236717825644803 -11.741771190389084 -11.748850243516019 0 0 0
1832 1 7.052642695226307 -12.228869533511281 -9.23012749036446 0 0 0
1774 1 6.178502012987522 -9.483000740545899 -8.959029681146038 0 0 0
1021 1 6.648517264325228 -13.91464984174314 -10.878111548140808 0 1 0
1790 1 7.076581818180568 -9.001585990790009 -11.567279375886638 0 0 0
74 1 5.405339299885995 -12.636538767023561 -12.779202177273676 0 1 1
1798 1 6.627943285904454 -10.452022545918874 -13.518154760293855 0 0 0
1843 1 7.910108074294499 -11.764565046493724 -11.682378259173714 0 0 0
1831 1 4.960021426160171 -11.505362268155782 -8.175326282229037 0 0 0
593 1 7.558204489025194 -13.301715505362681 13.502412648844873 0 0 0
1844 1 8.465262031459044 -10.315457946903312 -9.73045976288026 0 0 0
1646 1 12.657957957210694 -11.735748918181306 -11.868285883184145 -1 0 0
1851 1 10.13940670332983 -12.41071397526464 -12.714820217723815 0 0 0
1852 1 10.650021823467984 -10.890005907980953 -10.630746961543453 0 0 0
1863 1 9.268705227732287 -12.965940226162333 -9.954155323814572 0 0 0
1867 1 11.266093473682734 -13.737270179263671 -11.059512822228122 0 0 0
477 1 9.303491030394717 -9.74329662235414 -12.433622121662323 0 0 1
1845 1 11.935692809074286 -12.314762753512381 -9.009138639091109 0 0 0
1855 1 11.162036247905938 -9.416739859934658 -8.752656592238832 0 0 0
1800 1 11.905912810998654 -8.97270290280508 -11.572864719257977 0 0 0
1854 1 13.14321531259294 -10.232051191879657 -9.89741086487843 0 0 0
1834 1 9.766083688264896 -11.558654172414863 -8.11227034749256 0 0 0
467 1 11.401179098374346 -10.373466946078128 -13.573202962677428 0 0 1
1776 1 8.82010702157178 -8.74256006491974 -7.969549363744221 0 0 0
1868 1 14.00371542511617 -13.063416180410167 -10.040958245476515 0 0 0
1857 1 14.04226966845459 -9.698497803715359 -12.464329035237526 0 0 0
1651 1 -9.293427192325339 -8.238853150825815 -10.669264709330871 0 0 0
1628 1 -11.466912183555195 -7.555879059229245 -9.66438224316639 0 0 0
1439 1 -12.74212476416503 -6.326720103565619 -11.38024800585223 0 0 0
1584 1 -9.298622200837938 -5.029182184446631 -13.148889342515519 0 0 0
1460 1 -13.67040549578427 -3.645783634807998 -11.194070645712928 0 0 0
817 1 -13.364249308540444 -7.723434006228112 -13.282106652087963 0 0 1
1334 1 -11.453442799831024 -4.28658011218949 -12.193501432980279 0 0 0
1567 1 -12.358713614520392 -4.811523855505248 -9.44198044898252 0 0 0
1441 1 -9.562068152084173 -4.0751726106266855 -8.426891583210093 0 0 0
1856 1 -13.45585183614114 -6.756614172808746 -8.692645632624833 1 0 0
869 1 -10.194651715687456 -5.552836988000285 -10.352735102252758 0 0 1
1566 1 -10.598133494648796 -6.847139133396266 -12.356342173972228 0 0 0
1542 1 -14.021902092629396 -8.25693994137907 -10.55642863986629 0 0 0
1459 1 -14.08138816197686 -5.1413100313084374 -13.051733530898371 0 0 0
1527 1 -8.7653658780883 -6.877882774508631 -8.719104668296422 0 0 0
1462 1 -8.85074784474655 -3.5337925540405433 -11.15645744830801 0 0 0
1688 1 -8.513961075110752 -7.574662097021089 -13.24540774657454 0 0 0
1674 1 -4.502989789055164 -8.259660263653906 -10.724488225193472 0 0 0
1673 1 -6.611600931965519 -7.495678992033344 -9.767258762142946 0 0 0
1546 1 -7.476560210476844 -4.831654926259359 -9.277548117602787 0 0 0
1650 1 -5.377221503053102 -5.535861877238645 -10.374591226992548 0 0 0
1689 1 -5.840966782915444 -6.977457680882281 -12.485957693940597 0 0 0
1465 1 -4.051161588377417 -3.512173812062393 -11.059776171766183 0 0 0
1568 1 -8.10594414745239 -6.135787855079359 -11.29363033837907 0 0 0
1569 1 -6.668270032412647 -4.250614367390879 -12.064278550353574 0 0 0
1585 1 -4.67255834616768 -5.009357891412414 -13.124777083841037 0 0 0
1548 1 -4.125141123173222 -6.788658656169542 -8.83850848870715 0 0 0
1443 1 -4.840248876324887 -4.053213997718663 -8.523001960550172 0 0 0
1690 1 -3.728548970976018 -7.738863323623347 -13.221439717419148 0 0 0
1570 1 -3.3465210382501756 -6.28575025782561 -11.489629144902096 0 0 0
1676 1 0.27613729857797686 -8.27774969166224 -10.651981740726864 0 0 0
1571 1 -2.711807877631289 -4.80975941376747 -9.529093484783257 0 0 0
1572 1 -0.6938739882035616 -5.679762687933911 -10.482860120856877 0 0 0
1587 1 -2.001391952102276 -4.31490343338878 -12.122917718664347 0 0 0
1691 1 -1.1294433903895875 -7.0748442535709986 -12.334680366202145 0 0 0
1588 1 0.10392883555273791 -4.969658015972829 -13.155280952701217 0 0 0
1693 1 1.466896567389707 -6.190325541091556 -11.349530334794785 0 0 0
1675 1 -1.8541807874710035 -7.6179911602231325 -9.622296054883702 0 0 0
1574 1 1.9411195925646716 -4.682603648968453 -9.479795903568725 0 0 0
1589 1 0.6313006396524568 -3.61636492378854 -11.26951514432908 0 0 0
1677 1 0.7044221844047396 -6.882024981905292 -8.699927482193946 0 0 0
1573 1 -0.2075414167558982 -4.267540229210123 -8.453477135546887 0 0 0
1692 1 0.9485910738499239 -7.794946167571434 -13.234176942855411 0 0 0
1789 1 4.873665068200246 -8.208238127103304 -10.632240251734142 0 0 0
1590 1 2.800051706456191 -4.311086404938722 -12.09412996639507 0 0 0
1678 1 2.879483658378689 -7.44634274951823 -9.682021175888298 0 0 0
1694 1 3.6272757580483486 -6.9580691018129635 -12.32087313778165 0 0 0
1791 1 7.527750809382155 -7.5210931595573935 -9.70163242439203 0 0 0
1592 1 5.439615805293251 -3.6922653837880635 -11.02333460458285 0 0 0
1695 1 4.0916578790219305 -5.548116131606964 -10.35613243785377 0 0 0
1696 1 6.251128274985941 -6.2160467619821835 -11.391666947625794 0 0 0
1704 1 4.88783140768156 -5.037265491905709 -13.049427523469799 0 0 0
1706 1 7.661190398147557 -4.409591956667697 -12.117143235956847 0 0 0
1680 1 5.363963779465216 -6.790699569812462 -8.714547832144298 0 0 0
1697 1 6.710076397747638 -4.75862022675763 -9.356099162045243 0 0 0
1576 1 4.626595526811329 -4.1217340096603134 -8.354088730469867 0 0 0
1797 1 5.823625484627765 -7.745404532227497 -13.327171935509991 0 0 0
1594 1 8.092022494236822 -2.8609509225043706 -10.186897804171894 0 0 0
1799 1 8.317352947496307 -7.005039958683271 -12.335326863994915 0 0 0
1792 1 9.756050380960325 -8.378367820808009 -10.538223150738911 0 0 0
1846 1 10.25492343642803 -6.859422720375395 -8.6955282051435 0 0 0
1698 1 11.65243547183712 -4.910761153660591 -9.516237552106382 0 0 0
1707 1 9.772033624942313 -5.02271981315859 -13.076055764828695 0 0 0
1708 1 10.191498623884502 -3.535977486815339 -11.226942040727637 0 0 0
1709 1 12.276398436205206 -4.395348710769424 -12.096268655849887 0 0 0
1801 1 11.014039725891816 -6.336522504988482 -11.332686065958928 0 0 0
1804 1 10.380867688749369 -7.784299958413629 -13.308724920914322 0 0 0
1699 1 8.944168041543048 -5.592517015650337 -10.421219761387253 0 0 0
1526 1 12.509222195240117 -7.547653660310407 -9.636634476892917 -1 0 0
1563 1 13.195505494905099 -7.039860068692684 -12.250056000300859 -1 0 0
1700 1 9.494207963719361 -4.078864673541469 -8.580127451874386 0 0 0
1802 1 13.722030883544594 -5.480552275942772 -10.347736269719721 0 0 0
1848 1 14.165712352894257 -4.036395792467575 -8.356331916576625 0 0 0
1320 1 -11.005097986583115 -2.8389094733823566 -10.087794679891406 0 0 0
1333 1 -13.075194502960251 -2.034793321118766 -9.169765182130002 0 0 0
1355 1 -12.360179400142872 -1.5889620772460802 -11.812120267534464 0 0 0
1356 1 -10.252412490077347 -2.2349372139970924 -12.851779398822185 0 0 0
1357 1 -9.72204486902059 -0.8908173968871154 -10.827962396323773 0 0 0
1254 1 -10.984522645909127 0.32785583470689517 -12.659664711596514 0 0 0
1255 1 -10.486462493299713 1.71524410766796 -10.797484205795417 0 0 0
1234 1 -11.7651906033032 -0.09713686826287748 -9.911605669791516 0 0 0
1236 1 -9.221910405567474 0.5637076797598581 -8.992348047144693 0 0 0
89 1 -13.082302969587058 1.065153952133155 -11.648629082332159 1 0 1
1253 1 -13.746796581356051 0.553601733063207 -9.085420868121286 0 0 0
1335 1 -10.423005505544674 -1.327926362099392 -8.088696245555997 0 0 0
1274 1 -9.657213884382983 2.2863930599847997 -13.399528676296507 0 0 0
1137 1 -12.742278460424503 2.494559988208813 -9.826420735245096 0 0 0
836 1 -13.496330420840795 -0.38157430396817205 -13.586278430268933 0 0 1
1463 1 -6.247551741719759 -2.7623535005048065 -10.134745807269656 0 0 0
1464 1 -8.295563568907141 -1.9808516051070733 -9.171175712483553 0 0 0
1256 1 -8.37943369903902 1.0661158220189026 -11.700360151984636 0 0 0
1358 1 -7.539908892574032 -1.583521077118597 -11.87629445884822 0 0 0
1360 1 -4.848023465605944 -0.8750630613066193 -10.759947229435726 0 0 0
1481 1 -5.477630260450832 -2.292581320858952 -12.825890430193825 0 0 0
1258 1 -5.658715673775951 1.822286286982072 -10.716286537786818 0 0 0
1359 1 -6.9996335148367255 -0.13825908910949813 -9.908931886278339 0 0 0
1377 1 -6.204294367273105 0.434858742905746 -12.51108834460198 0 0 0
1379 1 -3.563509468679685 1.0406326505838663 -11.690215064519709 0 0 0
1466 1 -3.511900771271634 -2.1136502456848163 -9.152697129764142 0 0 0
1361 1 -4.451424881930372 0.648527603356623 -8.948956638568175 0 0 0
1338 1 -5.682867966023588 -1.3297719907369085 -8.21640542896393 0 0 0
1276 1 -5.02497055575442 2.2695106049714013 -13.355749296130648 0 0 0
1257 1 -7.76014516596156 2.5415883718660517 -9.88092664531758 0 0 0
1238 1 -6.58787232971313 1.4397943500442167 -7.946368946056837 0 0 0
1378 1 -4.134658351484337 -0.26058946468103095 13.591217510399986 0 0 -1
1467 1 -1.3999216459789405 -2.814536748581423 -10.193526690463266 0 0 0
1260 1 -3.1317630534275853 2.4250591019015424 -9.804682545470664 0 0 0
1483 1 -2.7653111867435562 -1.5506275603676052 -11.936866253283213 0 0 0
1362 1 -2.3335632342600388 -0.14927715417223908 -9.940308007940457 0 0 0
1484 1 -0.6474358934468079 -2.294814224693182 -12.970884653000908 0 0 0
1485 1 -0.23690908441597713 -0.8394748306916746 -10.89266877661325 0 0 0
1486 1 1.8577615777460146 -1.6345481917390945 -11.992176466689514 0 0 0
1380 1 -1.3847685420592413 0.4068375355944358 -12.622792853022588 0 0 0
1381 1 -0.9070410303005954 1.805515969183439 -10.670854842329192 0 0 0
1382 1 1.3830433700269502 1.0409895807019414 -11.714358932146045 0 0 0
1469 1 1.1704896698424303 -2.213230141539883 -9.23350629410329 0 0 0
1364 1 0.37355793191936293 0.5521386354432032 -8.967014106224788 0 0 0
1468 1 -1.0582124240353163 -1.468344618049903 -8.275334924375677 0 0 0
1393 1 -0.15145413443060818 2.2860433164783416 -13.411946513337297 0 0 0
1383 1 1.7434191454728953 2.4943106977390954 -9.824839866979696 0 0 0
1363 1 -1.770765033376989 1.2452566144799686 -8.067062427584146 0 0 0
1487 1 2.4532430438462676 -0.26658940284329447 -9.993212511328213 0 0 0
1591 1 3.402639251503853 -2.8025475322828157 -10.236519260609004 0 0 0
1488 1 4.604250295839968 -0.8270200693101479 -10.98778949346732 0 0 0
1490 1 7.160651945720261 -0.2405965962878227 -10.087761446543707 0 0 0
1497 1 3.394469048465794 0.368768856027069 -12.689497190296702 0 0 0
1601 1 4.117350509476491 -2.368182136761641 -12.896131069206792 0 0 0
1603 1 6.717956353982554 -1.7037176183972225 -11.948779667038021 0 0 0
1384 1 3.815986127143489 1.6742613894100096 -10.719167396720293 0 0 0
1499 1 5.952049621847767 1.0062565570242405 -11.731167340003948 0 0 0
1593 1 5.872291579644358 -2.068497908202623 -9.333886400472224 0 0 0
1489 1 5.1494120321498045 0.5780037765880142 -9.024782916986183 0 0 0
1471 1 3.873186080773152 -1.3782002057067988 -8.2254791669203 0 0 0
1491 1 7.623766186396917 1.377469252648721 -8.256380432218858 0 0 0
1395 1 4.558470147825329 2.3691441303359078 -13.544521546476531 0 0 0
1366 1 2.8812976926155223 1.1639839906600766 -7.9623017119567425 0 0 0
1386 1 6.350729780157224 2.53800635037463 -9.974925974278273 0 0 0
1498 1 5.540704580840995 -0.4229455891117375 13.582268470514792 0 0 -1
1500 1 8.144217877236045 0.36547948328916036 -12.810333372672702 0 0 0
1596 1 12.733444946228364 -2.8279313355315043 -10.201366836557447 0 0 0
1501 1 8.581997495642451 1.7588606231772612 -10.896886874332374 0 0 0
1604 1 8.853283333941654 -2.3233833528609473 -12.868612089760322 0 0 0
1605 1 9.366273507887033 -0.9176313800630123 -10.958989854782136 0 0 0
1606 1 11.454310395463 -1.5489422308850358 -12.037842115758774 0 0 0
1607 1 11.929720296857298 -0.23007084445941395 -9.915910246960962 0 0 0
1610 1 12.843531120374262 0.34345418907023806 -12.769951239435906 0 0 0
1502 1 10.791884415689243 1.035094397289173 -11.723893657674163 0 0 0
1492 1 9.71091877375925 0.5814068807709383 -9.101977536738003 0 0 0
1597 1 10.732263958467325 -2.159707523604 -9.106922054238968 0 0 0
1504 1 13.273139604435215 1.7852485531925328 -10.764730877018334 0 0 0
1702 1 13.36942976182294 -1.3973492158885659 -8.318810284141295 0 0 0
1595 1 8.619527304219407 -1.2725183389859769 -8.31052110430738 0 0 0
1712 1 13.614814273317151 -2.3847639696903418 -12.928726631482073 0 0 0
261 1 9.458147864872931 2.3242474468353187 -13.455464001188222 0 0 1
1494 1 12.448011975993285 1.2657722157538895 -8.05769784113972 0 0 0
1503 1 11.199260138572892 2.5527561195865047 -9.85961702812384 0 0 0
1608 1 14.021851662519182 -0.9178800376740668 -10.963893742854 0 0 0
774 1 14.150958193347758 2.3600081595457354 -13.488212938925868 -1 0 1
1157 1 -11.95507880210047 3.034317247451721 -12.521189681321111 0 0 0
1061 1 -12.568944390794444 5.744728833192891 -12.422556254260058 0 0 0
1063 1 -9.869141951387551 6.522937840561816 -11.47628148277381 0 0 0
1158 1 -11.37548380346937 4.363039884556166 -10.516040598638227 0 0 0
1159 1 -9.247772602540929 3.8094428641939935 -11.505835588049122 0 0 0
1177 1 -10.5947783187109 4.896654381556544 -13.223775429425709 0 0 0
1062 1 -12.135701900603964 7.2545623582118814 -10.600854845543228 0 0 0
1041 1 -13.448819656457669 5.117202596220107 -9.714342284090703 0 0 0
1043 1 -10.754710273922239 6.040210921414026 -8.7982497654205 0 0 0
1139 1 -10.066047600276084 3.3397083564760237 -8.923868946550943 0 0 0
1082 1 -11.149927750294358 7.798414373749306 -13.178772540825758 0 0 0
1064 1 -9.405734992767295 8.034681209324862 -9.486220971678097 0 0 0
1508 1 -13.940261017302698 3.7564266901447283 -11.595258931456977 1 0 0
1302 1 14.2819512120718 7.9966454867091485 -9.55409268766396 0 0 0
991 1 -13.490749025863224 8.44006350262788 -12.235889469009567 0 0 0
1160 1 -8.564910244533067 5.19709758464883 -9.624291545505345 0 0 0
1275 1 -7.141527645809548 2.945230426632584 -12.57797866769309 0 0 0
1178 1 -7.771993186188834 5.74070487890852 -12.373917826391278 0 0 0
1161 1 -6.518601037279164 4.487473032580898 -10.723672543330624 0 0 0
1180 1 -5.073443352700222 6.554615341072346 -11.276049618082341 0 0 0
1277 1 -4.334884937764887 3.7242456637388486 -11.593383171174123 0 0 0
1065 1 -7.39590585133007 7.182960444525474 -10.40432049286597 0 0 0
1162 1 -6.006272744401819 5.935395349315762 -8.720160566215554 0 0 0
1163 1 -3.868643306523449 5.245438484112945 -9.584481816800736 0 0 0
1259 1 -5.139642888243223 3.2454149991833425 -8.795860415671154 0 0 0
1179 1 -5.526340143749559 5.011464301390614 -13.166017953836068 0 0 0
1084 1 -6.472687293212129 7.737536146665519 -13.13448954662769 0 0 0
1067 1 -4.65397215782815 8.010987899984041 -9.383806516759542 0 0 0
1181 1 -2.9387451638994886 5.703729320892879 -12.375185287732323 0 0 0
1182 1 -2.565816764159166 7.178961937098826 -10.378894286656397 0 0 0
1183 1 -0.3661612824801459 6.554355711106119 -11.32193611944449 0 0 0
1278 1 -2.180281207170685 2.9906363524487354 -12.397415161033447 0 0 0
1279 1 -1.8508339466695816 4.473817424911321 -10.487952654561255 0 0 0
1280 1 0.400161791544285 3.6323444566382896 -11.482387426162083 0 0 0
1281 1 0.8659712284445007 5.287010431532117 -9.701350605965144 0 0 0
1293 1 1.7758912496707069 5.779373721656558 -12.434209957203686 0 0 0
1165 1 -1.2643757555301587 6.004525629369397 -8.649101248502996 0 0 0
1262 1 -0.3656819997569567 3.233398028088839 -8.88771564437171 0 0 0
1185 1 2.2360429916692333 7.298423411638847 -10.541449840411161 0 0 0
1195 1 -1.7652718792517792 7.83643587098042 -13.012911622204163 0 0 0
1292 1 -0.8261162312848 4.982700895324424 -13.195354046579363 0 0 0
1184 1 0.034057631772997254 7.907961136306351 -9.367805757440987 0 0 0
1394 1 2.601864302422374 2.9836261632455567 -12.470167465148458 0 0 0
1282 1 3.0740629064497718 4.42230834123983 -10.590529269505625 0 0 0
1397 1 7.231317844753153 3.0497812354260567 -12.583175557189023 0 0 0
1284 1 5.686789020213425 5.058457898103956 -9.664242153522437 0 0 0
1295 1 4.302879002005689 6.558215103700061 -11.408683800256009 0 0 0
1296 1 6.4589905116240125 5.797825981123996 -12.446022019405932 0 0 0
1297 1 6.977516901537005 7.0920670167617565 -10.400236842678005 0 0 0
1396 1 5.144514739381005 3.843534961857568 -11.555238919620606 0 0 0
1398 1 7.844538600760966 4.551364867494332 -10.67244013552243 0 0 0
1283 1 3.5266638576357145 5.925494134261733 -8.76109484994507 0 0 0
1385 1 4.288574144794897 3.28427497529022 -8.874966933576513 0 0 0
1303 1 7.8933644872107465 7.736722699183524 -13.091619150151113 0 0 0
1294 1 3.844153916573461 5.047259150765765 -13.309686807467653 0 0 0
1187 1 4.813437936098744 7.942231419218103 -9.563222982383278 0 0 0
1197 1 3.0854048998851837 7.664221452072514 -13.137830528415732 0 0 0
1286 1 8.328262229350766 5.85032644405549 -8.649288810520734 0 0 0
1507 1 11.991669612144324 3.013023691290819 -12.62729762249175 0 0 0
1298 1 9.204027843154797 6.439426124684292 -11.399475858906126 0 0 0
1300 1 11.700749258716588 7.1596351709769515 -10.477658351487463 0 0 0
1399 1 9.918452327999507 3.7133706485963067 -11.70709665672772 0 0 0
1400 1 10.31187895647868 5.136621221457773 -9.66984302272254 0 0 0
1401 1 12.498094102037015 4.6278862995198615 -10.734557981365107 0 0 0
1404 1 11.258335842113933 5.668685987274653 -12.468635739775857 0 0 0
1388 1 9.07040209353963 3.2775682639597825 -9.066511298553667 0 0 0
1402 1 13.0973717478998 5.770707774275991 -8.774169883105376 0 0 0
1403 1 8.646142082103786 5.064966194254442 -13.227267190620767 0 0 0
1305 1 12.425164120160009 7.673721789588235 -13.263321042214434 0 0 0
1299 1 9.639394710218294 7.91742064338084 -9.53602432648812 0 0 0
1405 1 13.297960264055977 5.106287582312369 -13.372281364254246 0 0 0
1406 1 13.866406350317263 6.442764691818034 -11.474944776315132 0 0 0
1390 1 11.718566743080036 4.073746280212603 -7.908991808564939 0 0 0
1505 1 13.862549496795776 3.1615351699627645 -8.81810561374942 0 0 0
949 1 -11.700065218487978 11.815331692234569 -11.20190133727505 0 0 0
992 1 -12.869299287094238 9.90024464386535 -10.287151003187638 0 0 0
993 1 -10.649039601098199 9.202151407256284 -11.305266863681831 0 0 0
1006 1 -9.522145901901272 11.134254402236209 -11.88896907710519 0 0 0
994 1 -10.315294288948756 10.585980689613962 -9.274042511317152 0 0 0
585 1 -12.168352735549359 10.340881271859619 -13.015191521866896 0 0 1
977 1 -11.48751394560083 8.693616796333835 -8.553985806446525 0 0 0
1742 1 -13.728706346114638 12.564691456941684 -10.26310430366018 0 -1 0
950 1 -11.158683556160144 13.356019741640186 -9.232648657139924 0 0 0
948 1 -12.935662651673681 13.054912613897372 -12.981252230833075 0 0 0
942 1 -12.352059112396331 11.411589534953624 -8.445143057709096 0 0 0
1008 1 -8.928778093428349 12.667495108120754 -10.256181859345004 0 0 0
1210 1 14.175009594566259 11.203763769784498 -12.263468154176188 0 0 0
1764 1 -10.356992989650077 13.801833157402267 -11.788674402871324 0 -1 0
1083 1 -8.504993335179375 8.572050031613276 -12.160862155725251 0 0 0
1086 1 -3.8862036964830953 8.512117796105542 -12.138873051189869 0 0 0
995 1 -8.138845806313213 9.95430662915544 -10.353593481662509 0 0 0
1007 1 -7.248780072164632 10.434918665503343 -12.944290591568508 0 0 0
1009 1 -6.818825071031591 11.903187807291658 -11.142967670306302 0 0 0
1010 1 -6.350816224430836 13.433460263008918 -9.221277801972668 0 0 0
1085 1 -6.001854718109966 9.185504084378756 -11.311996079124965 0 0 0
997 1 -5.4926489261541995 10.667755316059264 -9.41267000362462 0 0 0
1066 1 -6.828921803868465 8.633729074316634 -8.51825131370282 0 0 0
1087 1 -3.3898087118756255 9.927675661195572 -10.261018735645528 0 0 0
841 1 -8.23525100544046 13.084628745435936 -12.908693245862434 0 -1 1
1011 1 -4.241425086581518 12.752469431932859 -10.216573831778447 0 0 0
1100 1 -4.720115044731388 11.195901929043323 -12.064804718361467 0 0 0
996 1 -7.6260202006599345 11.478195283512562 -8.421527804291282 0 0 0
780 1 -3.4463207673741785 13.134105775855648 -12.6851289096264 0 -1 1
1784 1 -5.5903017080347155 14.006254942483757 -11.869176528042132 0 -1 0
1196 1 0.9892725258599011 8.477916314577001 -12.115779044550122 0 0 0
998 1 -2.947001440861639 11.517774666234004 -8.546261276218555 0 0 0
1088 1 -1.1887797739442156 9.158162019315569 -11.168305805900232 0 0 0
1013 1 0.5698739479204207 12.579164079262853 -10.091000233356423 0 0 0
1090 1 1.3453728469648123 9.973957568289897 -10.249623476514152 0 0 0
1101 1 -2.1293465195096832 11.834427784190051 -11.004803037036671 0 0 0
1102 1 0.0516754224048217 11.151123511740032 -12.018899960159878 0 0 0
1089 1 -0.7098776195879388 10.684968951729946 -9.211116508979801 0 0 0
1069 1 -2.0806498414326295 8.670812186909654 -8.506227478609533 0 0 0
1012 1 -1.6119175863621429 13.322756475874506 -9.1985393628086 0 0 0
1091 1 1.9169470853200288 11.349564900134844 -8.360551299920363 0 0 0
208 1 -2.6061640407378377 10.518318665364713 -12.938633636807419 0 0 1
698 1 1.4128410854540547 13.121029303128005 -12.79186603846503 0 -1 1
116 1 2.2426263141773184 10.4731384773417 -12.93044927524668 0 0 1
136 1 -0.7645816664928731 13.866913590032002 -11.949950971297444 0 0 1
1186 1 2.689145566982983 8.604669868207917 -8.461261702823599 0 0 0
1199 1 5.797009553767218 8.448666525758654 -12.260493089122672 0 0 0
1103 1 2.7996770319057234 11.865926931443063 -11.018034665220721 0 0 0
1104 1 4.8731891056169125 11.180368772899733 -12.066751020111674 0 0 0
1105 1 5.374006497036682 12.508772524028902 -10.069428310299479 0 0 0
1198 1 3.4922383031343145 9.351459450155811 -11.213728107916271 0 0 0
1200 1 6.085088671182998 9.926835955833646 -10.313528979096105 0 0 0
1207 1 6.983337687095901 10.413566470140932 -13.049783873593473 0 0 0
1106 1 7.463036628784504 11.771302176675409 -11.033020430677022 0 0 0
1092 1 4.082747230573503 10.749844847444127 -9.358225898821654 0 0 0
1189 1 7.418357176664461 8.551374247068065 -8.543130748561367 0 0 0
1015 1 3.123756442228583 13.374831602096325 -9.130719137465412 0 0 0
1094 1 6.591865651258569 11.255415748946731 -8.357700299542746 0 0 0
24 1 6.3085523530415095 12.969846700852987 -12.923767391322231 0 0 1
1107 1 7.936725304650729 13.236432198727861 -9.182244487249747 0 0 0
1304 1 10.437910353875203 8.47873274960683 -12.176298945717603 0 0 0
1201 1 8.22290515649052 9.157933410434783 -11.222815891529295 0 0 0
1202 1 8.757469700537918 10.619208183701545 -9.348128258273945 0 0 0
1108 1 12.216636093936877 11.855586168636489 -11.181054511235136 0 0 0
1203 1 10.950796827482549 9.912022561139132 -10.262697274761829 0 0 0
1208 1 9.529679418928094 11.082519298362076 -12.04210607489387 0 0 0
1209 1 11.715268611365694 10.294206830942965 -13.131945885108731 0 0 0
1306 1 13.07107161733871 9.162608307131364 -11.36386531058514 0 0 0
1112 1 10.052444993221414 12.482793733966705 -10.132079587734028 0 0 0
1113 1 10.897381413363998 12.970537008536287 -12.94464372556703 0 0 0
1301 1 12.236735199525647 8.789899369106994 -8.721323250926215 0 0 0
1114 1 12.64851323812529 13.259257418575434 -9.326941856084233 0 0 0
1204 1 11.470412098905204 11.319577790817902 -8.374015247139141 0 0 0
1205 1 13.648485305898248 10.744666281556075 -9.512131674261376 0 0 0
591 1 8.745334575481834 13.813606685948187 -11.907686893424078 0 -1 1
1115 1 13.5169087809915 13.841846578761928 -12.05501812186618 0 0 0
1865 1 -13.295237757814835 14.048809108363155 -8.302028221803733 1 -1 0
952 1 -8.53588901138924 14.087754085115332 -8.286292951539505 0 0 0
1746 1 -3.8032868463628002 14.142953286111961 -8.27453702415863 0 -1 0
1014 1 1.0965690050184307 14.113733249753338 -8.193985913293453 0 0 0
695 1 4.049933026266366 13.711322907434347 -11.828949168945112 0 -1 1
1016 1 5.90799867233471 14.133960042449711 -8.296513700208852 0 0 0
1109 1 10.529391196372007 13.932337206244775 -8.29317425557045 0 0 0
1649 1 -10.108231914677567 -8.783610950908244 -7.885763547986702 0 0 0
1743 1 -10.670391906337365 -13.4315808246769 -7.392251962326425 0 0 0
1565 1 -11.382664465835509 -10.832136460696791 -7.125798836604999 0 0 0
1648 1 -10.90375057140487 -9.373869507797412 -5.145776034250584 0 0 0
1866 1 -12.819677593648214 -12.784004896907307 -6.327876450929604 1 0 0
1619 1 -9.622784723863504 -10.547348445969584 -3.5277381499992195 0 0 0
1717 1 -12.293111170962328 -11.32663405321633 -4.528935054635111 0 0 0
1514 1 -13.439468724244858 -10.018632887967023 -6.287924843093652 0 0 0
1714 1 -10.134068546296856 -12.018779212857853 -5.54186495046299 0 0 0
1860 1 -13.520521843107787 -13.185564665766774 -3.6918535018277208 1 0 0
1716 1 -10.922378054493773 -12.47280700064467 -2.770399489497061 0 0 0
943 1 -11.396782655905598 -13.920751929093997 -4.583763330720611 0 1 0
1412 1 -13.067508025036942 -8.490525200085349 -4.350960178786316 0 0 0
1630 1 -8.69450654259331 -10.097557085693657 -6.148795724655649 0 0 0
1612 1 -11.664448131072042 -9.768719997775575 -2.48088933036205 0 0 0
1613 1 -8.722206238303544 -13.23128965390078 -3.7368734168736086 0 0 0
1767 1 -5.364969640450866 -8.717737114333353 -7.842060639726623 0 0 0
1747 1 -5.772500272997744 -13.38565397881236 -7.289408582194589 0 0 0
1653 1 -6.713801508966581 -10.63491184967363 -7.101034963894659 0 0 0
1632 1 -6.087003010791605 -9.28023068318431 -5.120133894507244 0 0 0
1634 1 -3.957031050412665 -9.875457585253265 -6.036799931940191 0 0 0
1728 1 -7.964696519027698 -12.786058277002624 -6.313081962427291 0 0 0
1729 1 -5.28923761706543 -11.925183161887041 -5.393195224130393 0 0 0
1620 1 -7.477198293189498 -11.259824651175698 -4.446694708475052 0 0 0
1622 1 -4.7634401663857435 -10.666763646467157 -3.4334413256849476 0 0 0
1720 1 -4.037870170360691 -13.352040272938961 -3.4722340200633166 0 0 0
1719 1 -5.995438255691603 -12.580237852613834 -2.6513929531368614 0 0 0
1635 1 -3.5479216628457664 -8.464190148026251 -4.200264977474289 0 0 0
1621 1 -6.919873922615271 -9.72611313442491 -2.603490388311233 0 0 0
1718 1 -6.444351724390299 -13.928499571626201 -4.658324196744431 0 0 0
1730 1 -3.168685406310175 -12.688207049231062 -6.213759022504661 0 0 0
1655 1 -0.5558158532702162 -8.835801127812296 -7.8966180712567065 0 0 0
1731 1 -2.6415170050776595 -11.29015507631674 -4.288509202758178 0 0 0