LAMMPS data file via write_data, version 2 Aug 2023, timestep = 0, units = metal

1868 atoms
3 atom types

-13.500893738863832 13.500893738863832 xlo xhi
-14.350089567152319 14.350089567152319 ylo yhi
-14.115688788614131 14.115688788614131 zlo zhi

Masses

1 55.847
2 1.008
3 1.008

Atoms # atomic

1033 1 -9.338421835941077 -12.480393094617508 -12.782784187965301 0 0 0
1035 1 -10.161418629266914 -10.416644751631516 -9.233658076732233 0 0 0
1043 1 -11.828019267408779 -12.678415498813916 -13.47149318961525 0 0 0
1044 1 -11.379189328633307 -12.484049108796958 -11.031704433662018 0 0 0
1143 1 -10.526925165098225 -10.428590278139724 -11.819030919580943 0 0 0
1145 1 -12.593230867931194 -10.657596007162207 -9.774614434820135 0 0 0
1034 1 -9.043996002982354 -12.263942560982937 -10.434482021380417 0 0 0
1273 1 -13.027108225274793 -10.703019049572482 -12.256385055594057 1 0 0
1133 1 -8.38356204250291 -10.344488315498278 -13.727599936712041 0 0 0
1134 1 -8.219790034670591 -10.205220556697572 -11.240904144459865 0 0 0
1045 1 -13.38643146375214 -12.754420527509666 -9.160058131205203 0 0 0
883 1 -8.235222687165342 14.29037959818187 -13.811310614628992 0 -1 1
1032 1 -7.74981581524377 14.307065484632032 -11.499785158232376 0 -1 0
893 1 -11.050010926895558 -10.440519301221666 -14.11108982053407 0 0 1
1020 1 -6.657483584080585 -12.246801709753123 -9.758429526067387 0 0 0
1119 1 -4.558440370181623 -12.036742225818287 -11.699422881817592 0 0 0
1120 1 -5.59621216574309 -10.156040530767708 -10.657169185898338 0 0 0
1132 1 -7.0542439679855145 -12.1776944390052 -12.31220547153904 0 0 0
1106 1 -3.253646350923148 -9.891199763900675 -10.073348781241034 0 0 0
1235 1 -3.7215476031533488 -9.83492299683624 -12.500536994470359 0 0 0
1009 1 -4.068927324167044 -12.020577286282633 -9.21006771128576 0 0 0
1118 1 -6.1396201669276 -10.026952144971624 -13.076273844360358 0 0 0
1117 1 -3.3744197579014905 -13.91795873940795 -12.765634797608321 0 0 0
1007 1 -2.943149109196016 -13.96112695535967 -10.39315845277445 0 0 0
728 1 -2.592705737551208 -11.721072666861952 -13.55765655962706 0 0 1
1019 1 -5.381816709675036 -14.092524990389203 -10.850559740150358 0 0 0
1022 1 -7.661429371605847 -10.18454121607785 -8.847431951721635 0 0 0
1018 1 -5.876519262982958 -14.271512652095888 -13.340663753180054 0 0 0
1725 1 -7.487198407597441 14.337252555379452 -9.038782263859297 0 0 0
818 1 -5.042422944135284 -12.11183072824529 -14.053679000516698 0 0 1
1104 1 -2.12173971787076 -11.736106909749072 -11.315369009719142 0 0 0
1103 1 -0.9638585227323819 -13.847623886212453 -12.347158354210363 0 0 0
1091 1 1.378062087436966 -13.74996863650683 -11.53411550377235 0 0 0
1092 1 0.24604332131685425 -11.556537525510247 -10.700051117329021 0 0 0
1220 1 -0.10901667088073275 -11.75496784758846 -12.97701270535592 0 0 0
1206 1 2.384537010443795 -11.618145062184148 -12.481651327525483 0 0 0
1222 1 -1.1782159388806317 -9.706856806955333 -12.127631148608383 0 0 0
1207 1 1.2281708729833785 -9.57490416104181 -11.4282110866009 0 0 0
1208 1 1.6276801503853147 -9.494946312742265 -8.994919202755996 0 0 0
998 1 -0.6107716024205807 -13.759532023267715 -9.883416019177368 0 0 0
1094 1 -0.8692266931218793 -9.657578101327573 -9.601151305805377 0 0 0
990 1 1.8702247527226845 -13.63226808297406 -9.141642530691536 0 0 0
1081 1 2.7218752232933685 -11.592853007419258 -10.016600484246656 0 0 0
1105 1 -1.7058202438655279 -11.805133721450826 -8.732040008254991 0 0 0
1329 1 0.7690996030379313 -9.627253302410352 -13.889777496040969 0 0 0
1315 1 3.117903436901466 -9.4272668072801 -13.277383977389057 0 0 0
1090 1 1.0884181224208902 -13.725811131098652 14.049982022919332 0 0 -1
507 1 3.541584363041343 -13.445794021896553 -13.618029905870467 0 0 1
1194 1 3.691712463859515 -9.436048688538394 -10.798180658467887 0 0 0
1079 1 3.936648932242994 -13.54017902126142 -11.184881575434147 0 0 0
1192 1 4.778697975613822 -11.311899335323368 -11.922469153354632 0 0 0
1193 1 5.245800328569567 -11.291463332459582 -9.484439531237896 0 0 0
1179 1 7.227744807743145 -11.16192962488542 -11.462071937793704 0 0 0
1181 1 6.14261835451118 -9.312657406914814 -10.406251154625823 0 0 0
416 1 6.000577201155837 -13.294387946317041 -13.258962926101674 0 0 1
1301 1 5.611362952975236 -9.139564403171143 -12.834785533450201 0 0 0
1180 1 7.771389304508867 -11.134623151615829 -9.046160787538458 0 0 0
1178 1 6.252100870603146 -13.33250688326155 -10.841001741367368 0 0 0
1314 1 8.300308456818351 -13.213796604090646 -12.594145901262326 0 0 0
1302 1 8.066154318754 -8.97306348119712 -12.348956114107066 0 0 0
1169 1 8.550981615620268 -9.04999291451369 -9.93837119424943 0 0 0
1080 1 4.396998056685023 -13.525250268286626 -8.770444261890965 0 0 0
316 1 6.871952202698575 -11.161139097691343 -13.897417615118943 0 0 1
1167 1 8.69139097980023 -13.12394873954967 -9.986914639074945 0 0 0
1154 1 13.159586256415968 -12.886493586416941 -11.58471961593591 0 0 0
1300 1 9.205000520903779 -11.072538680388318 -13.406941191329368 0 0 0
1165 1 10.722043261572507 -13.020375827806909 -12.137894936104423 0 0 0
1166 1 11.272433484049182 -13.085134378034507 -9.69002140629513 0 0 0
1286 1 11.593774089436431 -10.86905436604182 -12.744956632489895 0 0 0
1287 1 9.677360790439424 -11.083644384172246 -11.101893995024454 0 0 0
1156 1 12.038877921089812 -10.969470753894537 -10.479232293952204 0 0 0
194 1 12.80395943946189 -12.819807584939348 -14.063184488568824 0 0 1
1288 1 10.47824551884637 -8.87044129618865 -11.803070930327822 0 0 0
1289 1 10.946902675912382 -9.001042305009644 -9.384262897400577 0 0 0
1144 1 -11.703543407261972 -8.468783633461216 -10.64317010998183 0 0 0
1148 1 -12.136521581086312 -8.558225113009788 -12.964167979337006 0 0 0
1261 1 -9.668210661814491 -8.269143492277149 -12.64548080466767 0 0 0
1135 1 -9.343019244248008 -8.210854436091712 -9.98529056955321 0 0 0
1146 1 -12.171093511440404 -4.38939759459719 -10.363793598993109 0 0 0
1253 1 -9.667640875160515 -4.199134563694438 -9.695466697540118 0 0 0
1262 1 -10.753962330597266 -6.445431749172271 -11.395299612966259 0 0 0
1386 1 -9.917536998197956 -4.201068963094444 -12.3775926646472 0 0 0
1137 1 -10.354242578578692 -6.348513144957844 -8.954903886894488 0 0 0
1401 1 -12.903660792298954 -6.632732580634841 -9.566755932177173 1 0 0
1374 1 -8.842729156928495 -6.222654923833872 -13.339836482288346 0 0 0
912 1 -12.425947585867837 -4.437448490674457 -12.94575075469989 0 0 1
1252 1 -8.45284866496785 -6.161991193552799 -10.882637150490208 0 0 0
1267 1 -13.129861457508857 -6.71094051114873 -12.047597244610742 0 0 0
1251 1 -11.273213801543392 -6.354260631604367 -13.933608404843948 0 0 0
1250 1 -7.366881284093627 -8.132826614616548 -11.925446449586904 0 0 0
1375 1 -7.513638214201878 -3.8638333946202277 -11.54043657084267 0 0 0
1122 1 -6.845939282638609 -8.145017476498225 -9.620544784566036 0 0 0
1225 1 -3.653286104318939 -5.736446444060469 -9.769517825257465 0 0 0
1236 1 -4.895885069867152 -7.929463415449313 -11.41624844019644 0 0 0
1238 1 -5.990551727423307 -5.970395765437424 -10.268757187881782 0 0 0
1362 1 -5.106182491263036 -3.8991402295034927 -11.074149319290925 0 0 0
1345 1 -6.5331959839728455 -5.829101089596888 -12.805189300306385 0 0 0
1347 1 -4.14243199748576 -5.88117759578283 -12.23799842882962 0 0 0
1237 1 -4.47435970300654 -8.007475869433229 -8.934549854582123 0 0 0
1471 1 -3.184760339839782 -3.7326217063991027 -13.12127083558589 0 0 0
1330 1 -2.8061859079291214 -7.776951283448474 -13.297702490710176 0 0 0
1472 1 -5.7440925280360675 -3.782302652153577 -13.582974085567303 0 0 0
1240 1 -7.191081507425769 -4.004209753353313 -9.162319719280749 0 0 0
1349 1 -2.7005476472425034 -3.6202642819688453 -10.563792003218582 0 0 0
1239 1 -4.700197936355323 -3.7522357553397256 -8.663589226295116 0 0 0
639 1 -5.280691051231781 -8.09104184632907 -13.797378341704105 0 0 1
1223 1 -2.476633590004445 -7.747389341069496 -10.919856443334313 0 0 0
1209 1 0.07844706532480572 -7.553190822473198 -10.384387181352903 0 0 0
1332 1 -1.6067609127531775 -5.621221913292338 -11.555953187599442 0 0 0
1333 1 0.8778385216374023 -5.36651398864826 -11.127434072353122 0 0 0
1331 1 -0.32132977042713406 -7.614336210689343 -12.792330145873386 0 0 0
1196 1 2.3945985340627924 -7.294434885223244 -9.686165184011983 0 0 0
1456 1 0.43162945060452884 -5.543690289941965 -13.542992243912117 0 0 0
1211 1 -1.2359429472764187 -5.663348357093893 -9.163865092514195 0 0 0
1316 1 1.977530845331522 -7.393630387997657 -12.21145132237602 0 0 0
1334 1 -0.30836430082909594 -3.4620166166722885 -9.978276289354579 0 0 0
1441 1 2.9842494933352253 -5.2429298710297605 -13.027820760207971 0 0 0
1457 1 -0.7871942247888768 -3.5559425720241062 -12.481119809827785 0 0 0
1198 1 1.247492225896087 -5.525550330906942 -8.6786165637611 0 0 0
1458 1 1.6849528253911572 -3.256652060963555 -12.045759588970386 0 0 0
1320 1 2.0507065116941945 -3.3546439580700476 -9.564142001090985 0 0 0
1318 1 3.3101478014722137 -5.428023432711763 -10.67581900468015 0 0 0
1303 1 6.945197524047041 -6.9670797518422445 -11.223509763950142 0 0 0
1305 1 5.7334019268261525 -5.066037735225265 -10.065432475247395 0 0 0
1317 1 4.40720856753749 -7.240917821663256 -11.692764843608696 0 0 0
1442 1 5.313021582593231 -5.087374410622209 -12.431127891274407 0 0 0
1549 1 7.807359571567792 -5.023057390356318 -12.0177262309859 0 0 0
1183 1 4.86590679817631 -7.233757460632594 -9.30973509145775 0 0 0
1428 1 6.474054824223236 -7.138020259902481 -13.579207536961547 0 0 0
1429 1 8.167999064633277 -5.061608295305627 -9.577995532657887 0 0 0
1304 1 7.38714136679655 -7.18057016189444 -8.768824279319144 0 0 0
336 1 3.7966246280046096 -3.260471117015614 -14.054159934392858 0 0 1
1444 1 4.468223177535917 -3.166552284557161 -9.127780269720613 0 0 0
1443 1 4.218546587349978 -3.223496464768653 -11.529859186528823 0 0 0
1412 1 12.565508217000884 -8.778055948620633 -13.649534425695295 0 0 0
1427 1 8.835620288817244 -6.948194596100477 -13.119321078828644 0 0 0
1274 1 13.38396095857132 -8.740023417228851 -8.731919527788905 0 0 0
1400 1 12.812619060230892 -8.700801289077248 -11.146818735573525 0 0 0
1290 1 9.274871827351975 -6.93738482856037 -10.63446666564305 0 0 0
1413 1 11.37175868065376 -6.7290956517930605 -12.521172954907637 0 0 0
1414 1 11.651293794515633 -6.697815120724628 -10.044370315865821 0 0 0
1415 1 10.166373476959285 -4.847593127089436 -11.426653279021085 0 0 0
1416 1 10.54530735819352 -4.61481105487041 -9.081288831946196 0 0 0
1524 1 12.538479610807292 -4.459367747373339 -10.95944049146117 0 0 0
1534 1 12.315414031011366 -4.569215334475498 -13.372164871929943 0 0 0
1548 1 9.9624242995173 -4.827685661536561 -13.849801477068297 0 0 0
1376 1 -8.6309012251307 -2.13930767023923 -10.637914676930961 0 0 0
1387 1 -11.40147012824952 -2.2211389951308913 -13.765784743240035 0 0 0
1378 1 -9.832271565493558 -0.1819462956961928 -9.557581710475171 0 0 0
1389 1 -12.589188206193713 -0.3523254504445621 -12.500532402858388 0 0 0
1500 1 -10.2413282749451 -0.16451430286420354 -11.997189013666352 0 0 0
1499 1 -9.021393851819056 -2.110486465727929 -13.070540756740842 0 0 0
1390 1 -11.359504445289096 1.8228371482549353 -11.020918151708372 0 0 0
1510 1 -11.838022953743224 1.7443126732619607 -13.381631920761421 0 0 0
1255 1 -11.085427904268492 -2.240657807737966 -11.204322424875233 0 0 0
1257 1 -12.138016845732055 -0.2138704840090604 -10.095917854688341 0 0 0
1265 1 -13.022807700491558 -2.392053770409955 -9.22688003439319 0 0 0
1502 1 -8.987068334902512 1.9826534636390125 -10.408947502665796 0 0 0
1512 1 -9.341122019936101 1.9354124415617822 -12.943220321784946 0 0 0
669 1 -8.171257795857855 0.026399545951610648 -13.954125013743917 0 0 1
1256 1 -10.688895857597302 -2.236346994017582 -8.793412440734635 0 0 0
1402 1 -13.45221667117378 -2.4241705261395783 -11.794636420746588 1 0 0
1486 1 -7.745329825714474 0.04512077806987236 -11.534189341974155 0 0 0
1227 1 -3.7979086356715364 -1.700076371928116 -9.545915543370484 0 0 0
1348 1 -4.193749117741232 -1.9339592443406737 -11.973276267142246 0 0 0
1363 1 -6.286523190308418 -1.879405260082926 -9.969762274990483 0 0 0
1485 1 -6.623729670597013 -1.8223297289468174 -12.348795618701969 0 0 0
1487 1 -5.275308238797134 0.07168988766252937 -10.999992651930848 0 0 0
1474 1 -3.507323979359139 0.36801592696465235 -12.76991188345022 0 0 0
1607 1 -5.906944108494211 0.19758949210311805 -13.436694759841501 0 0 0
1475 1 -2.849567951755139 0.36941016959704953 -10.342216280834629 0 0 0
1365 1 -7.389820292856675 -0.01220725057267913 -9.097676112837295 0 0 0
1501 1 -6.994705760756373 2.182682515275344 -12.352781667450092 0 0 0
1488 1 -6.4344436179348925 2.14307616369066 -9.893523987066017 0 0 0
1476 1 -4.077241245513534 2.359181376911538 -9.363833487509234 0 0 0
1608 1 -4.611625628754997 2.3425004057761196 -11.739533318047998 0 0 0
569 1 -5.080262983187305 2.3338507113081715 13.968532041047881 0 0 0
1594 1 -2.5989867385564587 2.4830357878574727 -13.705564600337075 0 0 0
559 1 -2.317657373223474 -1.7703059098919862 -13.702648682674942 0 0 1
1473 1 -1.83117078357132 -1.5102285961649677 -11.379417681184455 0 0 0
1459 1 0.5885538748049424 -1.447389163760576 -10.78444215647866 0 0 0
1461 1 -0.5021555881453725 0.6063302404992648 -9.719609766212788 0 0 0
1593 1 -0.8240096217551152 0.5649055128533647 -12.300010492362018 0 0 0
1580 1 1.4981754937248368 0.7328702863886036 -11.70542862585649 0 0 0
1447 1 1.8623721445902461 0.7486594623326095 -9.17966677215313 0 0 0
458 1 0.22211363493825864 -1.3852605298242189 -13.333279875507964 0 0 1
1578 1 2.6133738558981623 -1.3071328464967849 -12.858492546928128 0 0 0
1336 1 -1.193130967729985 -1.4949941764529857 -8.953932632032991 0 0 0
1445 1 3.0693299190724 -1.166732629804219 -10.441860963556925 0 0 0
1563 1 6.220622187863194 -3.1252226780786536 -13.437883557241646 0 0 0
1430 1 6.609922213083957 -2.985379662158401 -11.006520425843242 0 0 0
357 1 3.494178652423935 0.7453971187067978 -13.569479112999536 0 0 1
1564 1 5.052651637014529 -0.9343421386784136 -12.176786424713667 0 0 0
1565 1 5.3768599435261475 -1.0520524214336255 -9.839500196391601 0 0 0
1550 1 7.480876197279214 -0.9487162792938193 -11.648880051291238 0 0 0
1552 1 6.351338061429635 1.100242861453678 -10.584780370401464 0 0 0
1566 1 3.792596882884352 0.9915184551734217 -11.19055399304684 0 0 0
1685 1 5.985365027361487 0.9779880787789352 -12.99091128681693 0 0 0
1551 1 7.794617691939196 -0.8474114392043894 -9.29682410836023 0 0 0
1672 1 8.298538216478649 1.137406945532467 -12.444530925332323 0 0 0
135 1 8.62224476269717 -2.8495180576529915 -12.78682835478732 0 0 1
1554 1 4.356410299999114 0.8206565749323982 -8.79570710013224 0 0 0
1539 1 8.743549503485758 1.3429767169714957 -9.995107279597933 0 0 0
1645 1 -13.293818548214485 1.6529951402467251 -8.999308736981806 1 0 0
1417 1 9.068339373483282 -2.7529466699201546 -10.47460075595029 0 0 0
1644 1 13.157764364085887 1.6416507598937518 -11.452653804649168 0 0 0
1535 1 11.101084146425327 -2.6856276209223413 -12.104622203867482 0 0 0
1536 1 11.481375334023179 -2.5445108240636003 -9.76899216694046 0 0 0
1537 1 9.992110159745147 -0.740806015583729 -11.088568393614347 0 0 0
1656 1 12.389242168697747 -0.495443767538422 -10.595931433900551 0 0 0
1657 1 10.797101989118 1.4698035719332339 -12.062569883140792 0 0 0
1658 1 11.135142832966439 1.376114750617111 -9.580502292358375 0 0 0
1655 1 12.01434314678802 -0.5902104750285488 -12.992509851150203 0 0 0
1670 1 9.714041626520517 -0.8919664420283357 -13.667561923227366 0 0 0
1538 1 10.166818152906869 -0.6371529832077005 -8.63420356738887 0 0 0
1511 1 12.84814907710655 1.6474034095393417 -13.96206960880477 -1 0 0
1624 1 -9.590148500158879 6.024422530669872 -12.658987289550526 0 0 0
1632 1 -10.608956740371244 3.9787406735501296 -11.704999370835816 0 0 0
1633 1 -12.147550845945519 5.854410548299851 -13.063759696201616 0 0 0
1634 1 -11.647453183272956 5.869044788831102 -10.692535960342344 0 0 0
1514 1 -10.11554035685368 3.911540841062971 -9.330607315298181 0 0 0
1625 1 -9.311310852377979 6.031381566485203 -10.224836993243205 0 0 0
1513 1 -13.043492499216532 3.732329546156455 -12.286823918817328 0 0 0
1747 1 -12.540159028549644 3.6649969058628766 -9.819729709544328 1 0 0
1622 1 -8.495370448979788 4.0812768848392285 -13.666727425340579 0 0 0
1817 1 -13.337977300386399 7.821022855872366 -12.063186423105838 1 0 0
1623 1 -8.171226081711707 4.0498201321262055 -11.323766229953105 0 0 0
1636 1 -12.823060218872824 7.753197671181438 -9.55559716898384 0 0 0
798 1 -11.161083068255284 7.893854185671705 -13.85202470075701 0 0 1
1505 1 -10.464912839246786 7.977175636873943 -9.171287418006852 0 0 0
1635 1 -10.900694647188221 7.958608551261117 -11.517841072485838 0 0 0
1490 1 -7.732747550653483 4.080217234665932 -8.864703814390094 0 0 0
1503 1 -7.353960898484759 6.079445366634948 -12.082846907150456 0 0 0
1610 1 -5.669726295241292 4.247037481757827 -10.775793870322524 0 0 0
1611 1 -6.946693723482977 6.179096162661727 -9.605225828665498 0 0 0
1719 1 -3.633227626103288 4.330957419971314 -12.532875954125483 0 0 0
1720 1 -4.859006756771624 6.404872940940598 -11.503477202200996 0 0 0
1596 1 -3.262135828120872 4.428056211785181 -10.133476290350806 0 0 0
1609 1 -6.104424146967539 4.222219809109829 -13.04655400642981 0 0 0
1711 1 -2.790151044442732 6.51736269768354 -13.34168745880211 0 0 0
1598 1 -4.50235157482299 6.373719465934263 -9.119459252526378 0 0 0
1728 1 -5.178565496956985 6.314819075474025 -13.875042857040093 0 0 0
1712 1 -2.4360432037195174 6.5414742167921265 -10.912966064173714 0 0 0
1463 1 -1.5915575866763945 2.5339788215277093 -8.698781880398263 0 0 0
1595 1 -1.9727332508832696 2.4476369654951693 -11.210776899005197 0 0 0
1581 1 0.39549014496418167 2.668163677758285 -10.673645903148067 0 0 0
1709 1 -0.06553623953758247 2.73708652604836 -13.025039668910617 0 0 0
1583 1 -0.8663130687351135 4.422483082141193 -9.635007343403696 0 0 0
1710 1 -1.3056055677830027 4.667904460743179 -12.036274881824784 0 0 0
1699 1 -0.4582084039359984 6.751580100114063 -12.761625040326246 0 0 0
1700 1 1.1658297243674713 4.793973764026374 -11.424354642242482 0 0 0
1690 1 2.4329940923814135 6.830041276600079 -9.819203058000245 0 0 0
1790 1 1.986497299565107 6.904898754353196 -12.155389296432796 0 0 0
1702 1 -0.13369531929340006 6.68403316872636 -10.340372144666711 0 0 0
1698 1 2.3613906165355676 2.7352179312539757 -12.591679770816922 0 0 0
1570 1 1.574748158775023 4.779178140491725 -9.00646285780613 0 0 0
1568 1 2.715547720516666 2.9079314517538624 -10.092627949967117 0 0 0
266 1 0.7924166675479292 4.724735258263548 -13.959753588433689 0 0 1
1688 1 3.0934233116761494 4.981952161064735 -13.203601530529792 0 0 0
1781 1 5.537922627862402 5.165461735749778 -12.7563656697443 0 0 0
1675 1 6.013072868686537 5.060718300156653 -10.446785558546967 0 0 0
1687 1 5.231420686241572 2.9253217497923156 -9.43154105908745 0 0 0
1673 1 7.217960944749761 3.1985561017044635 -11.48388619159613 0 0 0
1674 1 7.561910844358357 3.0446458966959096 -9.046267324574128 0 0 0
1783 1 4.4095676683170435 6.972973025979963 -11.502958020850397 0 0 0
1774 1 6.818482799443759 7.2035771710750165 -11.259688440839131 0 0 0
1677 1 5.046666873570567 6.940236877777812 -9.16907055430585 0 0 0
255 1 4.839820233145497 2.997638913434278 -11.97479458884025 0 0 1
1773 1 6.618093142854848 7.133428317424 -13.713116568697666 0 0 0
1772 1 8.072902424544202 5.2988226472745925 -12.415575984773373 0 0 0
1661 1 8.462729805010104 5.4596030679909 -9.92824151116087 0 0 0
1663 1 7.331027425522285 7.225652618251276 -8.719751225426165 0 0 0
1671 1 6.856658985600594 3.135044192332087 -13.886696965266893 0 0 0
1689 1 3.999408098206084 4.897139444937748 -8.712255145557283 0 0 0
1833 1 9.0105571687607 7.479292429404255 -13.106855801497256 0 0 0
1749 1 13.341855474102212 5.6473714483546775 -8.74067964370817 0 0 0
1770 1 9.294547435846892 3.3055277007134176 -13.22313524063316 0 0 0
1759 1 11.683636660197338 3.656831981277028 -12.828177059856555 0 0 0
1659 1 9.666539277421686 3.4780765223980676 -10.804962342775932 0 0 0
1748 1 12.867961701067939 5.755367355513981 -11.201642484159333 0 0 0
1760 1 10.411613392276104 5.565148256883253 -11.675892269751223 0 0 0
1761 1 10.966253940232692 5.412733700439768 -9.31899551098076 0 0 0
1646 1 12.014070845323944 3.5576578954871874 -10.395140914695256 0 0 0
1824 1 12.406519605858625 5.678425340364834 -13.605821885369675 0 0 0
1762 1 9.30253368812866 7.543858109983054 -10.666161561465222 0 0 0
1750 1 11.792599705780075 7.640410352686105 -10.073957573724098 0 0 0
1826 1 11.22782641486351 7.709448985606487 -12.556553240274265 0 0 0
1660 1 10.067327000025744 3.412768610289538 -8.337827984731316 0 0 0
1730 1 -8.424345420080249 8.09659235860436 -10.915441604356602 0 0 0
1729 1 -8.778227153096342 8.135937549537667 -13.361579948033299 0 0 0
1626 1 -9.497247226270291 10.115895066207694 -9.834049904731973 0 0 0
1736 1 -9.952014190764775 9.997393197039946 -12.22622354716734 0 0 0
1737 1 -12.3119738441663 9.835003595913518 -12.871802817234917 0 0 0
1738 1 -8.69308490449659 12.123140801974325 -10.759731457102449 0 0 0
1811 1 -10.996059375286164 12.020897653686609 -11.21398723150439 0 0 0
1739 1 -11.956665455657934 9.948736713710074 -10.382608770384822 0 0 0
1031 1 -9.176159899659996 12.141812817817216 -13.147612067639482 0 -1 0
1809 1 -11.52507734946311 12.04797857857415 -13.682369186457327 0 0 0
1812 1 -13.114683101035618 11.87987109032983 -9.330263924926143 0 0 0
1628 1 -10.70263132466578 12.054673226778652 -8.784912485604215 0 0 0
1805 1 -6.0769345620212825 8.323504658330021 -10.36420448106051 0 0 0
1721 1 -6.382944080212966 8.323520056610471 -12.822312529810496 0 0 0
1731 1 -7.592627582628245 10.173181619920557 -11.70676252337962 0 0 0
1810 1 -6.425779587818657 12.339458089461354 -10.141014935756644 0 0 0
1713 1 -3.665631485488758 8.524404886870498 -9.815345745628145 0 0 0
1723 1 -7.081632329215118 10.225882736842403 -9.210260933531721 0 0 0
1801 1 -3.995616311205408 12.659843603660105 -9.47022868652801 0 0 0
1806 1 -6.766294554634268 12.372109100743772 -12.579792507225777 0 0 0
1799 1 -5.080882648972439 10.512995554753418 -11.170415617141343 0 0 0
1852 1 -4.342741167936985 12.651380425524072 -12.02602426433026 0 0 0
1798 1 -3.949173130241027 8.513179975083245 -12.155184733890026 0 0 0
1803 1 -5.639708474551232 10.464090603379022 -13.615288489876656 0 0 0
1849 1 -3.117255570168192 10.723139450410946 -13.147741472253092 0 0 0
1800 1 -2.818361726576125 10.74874135769827 -10.687790732872307 0 0 0
1715 1 -4.726907616881425 10.433486370640681 -8.77167044733941 0 0 0
1850 1 -2.273783322776257 12.82367412747764 -13.853469692740214 0 0 0
1701 1 -1.6234610706527537 8.683992235841869 -11.669544802139834 0 0 0
1793 1 -0.3699734634707319 10.937313132749479 -10.023701185492264 0 0 0
1791 1 -0.7857298555009855 10.855387924050328 -12.558567843066713 0 0 0
1792 1 0.8809666201088238 8.95999180378393 -11.131920851381466 0 0 0
1846 1 1.723768422084543 10.977954907290433 -12.00261987301543 0 0 0
1848 1 0.518437148789328 12.862916550975699 -10.837906853388702 0 0 0
1786 1 1.9844563711510457 11.033003728861162 -9.483409844781814 0 0 0
1845 1 0.46942256315533193 8.80443590302328 -13.65910848169967 0 0 0
1851 1 -1.8586264314238221 12.813050550177389 -11.400304748570164 0 0 0
1847 1 0.19378531914875197 13.02112394049353 -13.307415370658427 0 0 0
1703 1 -1.1517497313947533 8.673930358650763 -9.271284206628362 0 0 0
1795 1 -1.4307639993931094 12.904331184658174 -9.005896849593906 0 0 0
1784 1 2.8922366299695152 8.978399319205424 -12.988531359002817 0 0 0
1867 1 2.6393059281823152 13.213592226024888 -12.869282009134908 0 0 0
1843 1 3.003753024664052 12.960604717762783 -10.35551113056317 0 0 0
1692 1 1.2737753097640354 8.84909715198791 -8.780562107381357 0 0 0
1842 1 3.331987925570166 9.015457334244077 -10.694513655214942 0 0 0
1797 1 -1.8360040945320382 8.566360839898513 14.067712748980126 0 0 -1
1775 1 5.769311219607955 9.104496560118706 -10.020634887802215 0 0 0
1836 1 6.554608349673268 11.254710593757904 -10.884652403398853 0 0 0
1840 1 5.19514804771695 8.965131371210775 -12.501397980166953 0 0 0
1865 1 6.066838480173649 11.256807918456856 -13.289625242106238 0 0 0
1866 1 4.16460470626974 11.187941033373457 -11.38582991009622 0 0 0
1835 1 7.683639740028662 9.445473813785599 -11.92581104438562 0 0 0
1764 1 8.173292127086581 9.41831978391802 -9.47987433344219 0 0 0
1837 1 4.4618538380716775 11.08248053662795 -9.012321211975497 0 0 0
405 1 5.00401450977852 13.258608456781351 -12.322567414969207 0 -1 1
1838 1 5.3727232787426775 13.283669368718458 -9.83407056694392 0 0 0
1862 1 8.52428893873317 11.48821854549657 -12.703371337019048 0 0 0
1841 1 3.679306261644749 11.251826586602055 -13.862778974990672 0 0 0
1863 1 7.423230291931153 13.434550416902864 -11.804806416737483 0 0 0
1069 1 7.754116785110687 13.50284878469513 -9.32630725107591 0 -1 0
709 1 -13.430717152869532 11.638051557592183 -11.72400376223421 0 0 1
1829 1 9.082996983315324 11.582139825809145 -10.30041774476931 0 0 0
1818 1 12.521352854990157 9.746419901012176 -10.920947068437986 0 0 0
1827 1 10.065958867349208 9.66790665906259 -11.5052482917656 0 0 0
1857 1 12.278851982275116 9.65333940832969 -13.363854738167493 0 0 0
1859 1 11.028246779662672 11.640507663981053 -12.315738735305448 0 0 0
1820 1 11.378869377299209 11.746664838514308 -9.932116767727168 0 0 0
1828 1 10.530492583448607 9.748743399573291 -9.078520709501058 0 0 0
29 1 9.718357015240363 9.471210502558934 -13.915883780514637 0 0 1
1861 1 10.239363186463555 13.68135027201147 -8.693438094029677 0 0 0
1868 1 9.374829828978273 13.540269539829149 -13.652856837694479 0 0 0
922 1 12.960582066459333 11.763305153400117 14.078263291542035 -1 -1 0
1733 1 -9.807156969591619 14.282331376396458 -9.766891259860522 0 0 0
1854 1 -12.204987479962833 14.01990133868726 -10.118260589007193 1 0 0
1042 1 -10.176228634526257 14.144937927980594 -12.062084865767275 0 -1 0
1853 1 -12.669555460406094 13.983710960565139 -12.57255981852766 1 0 0
1860 1 9.865505150080027 13.521786935015287 -11.260120915775557 0 0 0
1858 1 11.81998508320653 13.740435443822792 -13.119282140315576 0 0 0
1855 1 12.374255995759471 13.631749189467362 -10.613271263400893 0 0 0
971 1 -10.978693553274566 -12.493746088016945 -8.428542979302566 0 0 0
965 1 -8.509246755009446 -12.375458335003051 -7.9338917902044335 0 0 0
1046 1 -12.159482324650607 -10.578588948507715 -7.383080941392696 0 0 0
960 1 -9.308620589618933 -10.317479201319678 -4.397192222390123 0 0 0
967 1 -9.650608156722257 -10.512666589407678 -6.8376386266318505 0 0 0
937 1 -10.134651636736734 -12.436910274127749 -3.5875465535038753 0 0 0
940 1 -12.439774477846331 -12.76228935974197 -4.1849808230759855 0 0 0
1735 1 -10.48574478013623 -12.453843213417755 -5.963581885145951 0 1 0
1149 1 -11.92621811886272 -10.497438999947885 -4.997995647368258 1 0 0
1048 1 -13.009132550856947 -12.768623773215676 -6.543519466345967 1 0 0
966 1 -7.987657797897776 -12.334264159425976 -5.462219022501406 0 0 0
1021 1 -5.010790210458477 -14.11174701648189 -8.358019982305606 0 0 0
1121 1 -5.185718842163201 -10.096346005673674 -8.096102188120899 0 0 0
1025 1 -6.853348597080213 -10.189154569158546 -3.895111589121708 0 0 0
1036 1 -7.2475056928026325 -10.184567643407473 -6.347169158114982 0 0 0
1024 1 -5.680418803266178 -12.111101917769108 -4.891521174888464 0 0 0
958 1 -6.126966474107519 -12.112129726854416 -7.467595267688386 0 0 0
1023 1 -3.3539553883965016 -11.913485678972823 -4.390961848882226 0 0 0
1010 1 -3.6754803963456784 -11.907215335732007 -6.8133574770563605 0 0 0
1011 1 -4.887476716873177 -9.944557159000162 -5.622988716117677 0 0 0
1107 1 -2.7457259670019276 -9.845667754113336 -7.634308125250221 0 0 0
1012 1 -4.482238346356432 -10.004552026061134 -3.214595063222168 0 0 0
1718 1 -4.1597334333850196 -14.159848105888509 -3.6276648889129017 0 1 0
1008 1 -2.5347391538873847 -13.858630472395959 -7.920563265666052 0 0 0
953 1 -4.606993773926538 -14.068491293005676 -6.062575228946498 0 0 0
1002 1 -2.262611065781927 -9.820434487010917 -5.133982992429656 0 0 0
936 1 -7.778116045449401 -12.31897152604232 -3.0343503602996638 0 0 0
959 1 -6.926520701425298 -14.217613164376417 -6.671191315558191 0 0 0
1604 1 -6.591811570614771 -14.189180647713899 -4.13371662854491 0 1 0
948 1 -2.082985184585885 -13.97381900879713 -5.498831438890887 0 0 0
1093 1 0.7948372538045163 -11.624322319646339 -8.25782549732199 0 0 0
994 1 0.10400338487061056 -9.724187141921917 -4.762645384242761 0 0 0
1000 1 -1.1609595514180153 -11.802520453492996 -6.29350554886956 0 0 0
1001 1 -0.8809307371936317 -11.866679185811797 -3.9894436184665274 0 0 0
1095 1 -0.31909492882210344 -9.761269197159939 -7.2456778580984835 0 0 0
992 1 1.176789430373228 -11.586532270826543 -5.828685592790208 0 0 0
1083 1 2.152766008941681 -9.576816926289343 -6.631824118414622 0 0 0
991 1 2.3769055775478947 -13.69532611867173 -6.861629112692548 0 0 0
1084 1 2.4497756904828876 -9.50534564697738 -4.1349664216263715 0 0 0
943 1 2.711530825866964 -13.675418255211836 -4.4078957343065515 0 0 0
999 1 -0.10646901496324546 -13.769088891989917 -7.424940009625672 0 0 0
945 1 0.21400356100324558 -13.753594268038839 -4.90096485373879 0 0 0
993 1 1.5572505489826014 -11.59296545957937 -3.3503471787657464 0 0 0
1082 1 3.2096399823913675 -11.577026653066422 -7.752798275942922 0 0 0
949 1 -1.7474934856850517 -13.84763525903906 -3.0664727680492287 0 0 0
1195 1 4.070058898524406 -9.455485847668214 -8.49389893830882 0 0 0
1191 1 6.67624803366459 -13.233044199826628 -8.271149314420175 0 0 0
985 1 3.4062302493553833 -11.494429774593517 -5.203982076713629 0 0 0
1071 1 5.706946101440797 -11.442281137915332 -7.185892082571351 0 0 0
983 1 4.695129040592784 -13.440678493648953 -6.328075879910723 0 0 0
1070 1 7.086550530117892 -13.250152827737825 -5.785697755553345 0 0 0
1072 1 5.855973048503861 -11.302361225717847 -4.701695190259523 0 0 0
1062 1 7.945494730248141 -11.208012173932572 -6.599260881013653 0 0 0
1073 1 4.5775031217504765 -9.403394280613778 -6.125097033016616 0 0 0
1074 1 4.891583210913927 -9.441113863737325 -3.6095850524675654 0 0 0