LAMMPS data file via write_data, version 23 Jun 2022, timestep = 0

1870 atoms
3 atom types

-13.68740713850715 13.68740713850715 xlo xhi
-14.542836699967694 14.542836699967694 ylo yhi
-13.811280190795326 13.811280190795326 zlo zhi

Masses

1 55.847
2 1.008
3 1.008

Atoms # atomic

46 1 -12.63264995480561 -13.219396842878115 -11.64771688339556 0 0 0
12 1 -10.455169243415847 -12.053924905983699 -11.939994484067594 0 0 0
14 1 -8.195545988165858 -13.62163473321104 -12.678427992289908 0 0 0
50 1 -8.780515172333747 -13.240471904789477 -10.46896873852066 0 0 0
20 1 -6.733244524372678 -12.209480365975612 -10.703581034688288 0 0 0
22 1 -4.322977438297707 -13.57740735327875 -11.593569598111317 0 0 0
136 1 -6.050212826940653 -12.413754052279932 -13.075943913695996 0 0 0
214 1 -3.2800365375017577 -0.15920735993200807 -1.4426875827424315 0 0 0
123 1 -2.1325913361901456 -12.367588624225128 -11.89456058824418 0 0 0
8 1 -12.81072657136168 -10.69465043134128 -11.077577993636604 0 0 0
208 1 -10.601123316707179 -9.508477665121607 -11.427402519365446 0 0 0
291 1 -12.03510698324244 -11.081158998558745 -13.473440098111668 0 0 1
130 1 -8.34894481807516 -10.968104948533034 -12.34954093860608 0 0 0
156 1 -13.551938473530354 -5.863086071754223 -1.761420144953716 0 0 0
135 1 -6.07129034958178 -10.023021979580832 -12.656773168846607 0 0 0
125 1 -4.468663249010099 -11.114269896657698 -11.064870596386841 0 0 0
437 1 -3.838655169970661 -11.324098596015688 -13.362486353028444 0 0 1
140 1 -3.9066291582001487 -8.94643452323291 -13.000388534224314 0 0 0
141 1 -2.341683304124567 -9.986159972440927 -11.465452045863202 0 0 0
611 1 -6.43304458012828 -0.13444486280630308 -11.177835115568275 0 0 0
212 1 -12.078981562223479 -8.518310213640909 -12.981863054189999 0 0 0
213 1 -12.902138368850244 -8.099454146112546 -10.624168596211256 0 0 0
209 1 -10.756549958593439 -7.1820847997693 -11.01795158126575 0 0 0
232 1 -12.351836358950663 -6.017255810157545 -12.701198633779608 0 0 0
229 1 -8.369467588719619 -8.5555799943481 -11.806449452809607 0 0 0
203 1 -8.586596099283872 -6.017591173317948 -11.46150818639305 0 0 0
230 1 -9.95776735521218 -7.436798684460388 -13.294426837715372 0 0 0
43 1 -3.113668163524979 -2.793060688912016 -1.7740336880057122 0 0 0
18 1 -4.603172401410362 -8.721704393882007 -10.69364518087976 0 0 0
127 1 -6.243660475184093 -7.61135440317983 -12.220211767234492 0 0 0
138 1 -3.964614622151906 -6.462389480344079 -12.547282251320787 0 0 0
145 1 -2.337195051559153 -7.477627191673235 -10.999078630002112 0 0 0
132 1 -1.633727129661997 -7.943417566320631 -13.346648863216526 0 0 0
1106 1 -0.21498878251489906 -6.483841936198251 -11.440586121241722 0 0 0
231 1 -10.733408681235348 -4.877117382262794 -10.780393395136468 0 0 0
1023 1 -12.515362499345134 -3.6541851760007074 -12.406896036733 1 0 0
454 1 -10.203764865709559 -4.921841112520131 -13.082779214864615 0 0 1
225 1 -8.60244005349689 -3.4864995005908614 -11.14289072103174 0 0 0
9 1 -7.9866390461157595 -3.959267648204033 -13.411652781689325 0 0 0
4 1 -6.2443634152557115 -5.1025450989730885 -11.904292765554475 0 0 0
94 1 -4.082184204750778 -4.0357253291127755 -12.279513566614847 0 0 0
131 1 -1.8215624205362406 -5.336436182238366 -13.002682457748284 0 0 0
143 1 -2.4918808271848008 -5.0171026324764565 -10.73845886657394 0 0 0
134 1 -0.23010216925315063 -4.015564145044433 -11.06041994397021 0 0 0
133 1 -1.8061779165729064 -2.864160137390506 -12.669999030506249 0 0 0
234 1 -12.512211585242229 -1.1364381812522169 -12.02807343937708 0 0 0
11 1 -10.389324134460162 -2.5336752034769106 -12.654816006477706 0 0 0
227 1 -10.930993621851155 -2.2488089595264533 -10.261430650622168 0 0 0
142 1 -1.4996416837340334 -10.324539250263353 -13.673372201296159 0 0 0
653 1 -8.141127931092797 -1.4626971288785366 -13.029551218562206 0 0 0
6 1 -8.808246246362753 -1.074108172997283 -10.662336264179508 0 0 0
3 1 -6.384383683226659 -2.6316583477959785 -11.499670279715492 0 0 0
612 1 -4.158509480542005 -1.4768762350794518 -11.960655143473723 0 0 0
601 1 -5.77122299548429 -0.44708956026297386 -13.513752131938682 0 0 0
1147 1 -13.664600407567521 -10.387919317314271 -8.817942460970654 1 0 0
468 1 -0.36245856793757625 -1.4325585010110213 -10.724703044165267 0 0 0
571 1 -1.9978228273138097 -0.4728070362611856 -12.37563315186218 0 0 0
93 1 -2.4935555310863844 -2.595840187415998 -10.249450081541369 0 0 0
47 1 -11.205387075672947 -11.798408446768132 -9.640017694708032 0 0 0
77 1 -11.831899728493166 -14.026500635501188 -7.64201965970984 0 0 0
1128 1 -13.419047458238833 -12.922841419628597 -9.256360752144921 1 0 0
1598 1 -11.03569929560922 -14.376481001778284 -10.110111035784348 1 1 0
55 1 -7.2426740615382625 -14.365031057893603 -8.826137551698963 0 0 0
79 1 -9.692971190171008 -12.980826870587212 -8.02047463642789 0 0 0
19 1 -7.397356971375602 -11.876975932092831 -8.396087460892176 0 0 0
21 1 -5.033960403106123 -13.346419803502002 -9.195980466184213 0 0 0
29 1 -3.5956232505827757 -11.804435268074522 -7.16179008085149 0 0 0
23 1 -3.3320287872973005 -14.37736549985266 -7.7828892086000465 0 0 0
15 1 -5.763755862664697 -12.868238947710024 -6.773328226933734 0 0 0
122 1 -0.6186466468065817 -13.486329298419212 -10.383767515433513 0 0 0
31 1 -1.1354182463853935 -13.203529512092135 -7.927064549838146 0 0 0
124 1 -2.876409481184705 -12.159429400040883 -9.568864581117044 0 0 0
80 1 -11.962891858744314 -11.637777900289473 -7.275600983694205 0 0 0
186 1 -11.33626192222588 -9.320697314887838 -9.042301560237913 0 0 0
171 1 -10.890430546871459 -0.1245599702791349 -3.9420718598088875 0 0 0
13 1 -8.995008151616961 -10.750661621244294 -9.866697545810405 0 0 0
54 1 -9.733355560510917 -10.589550852739983 -7.645815815619942 0 0 0
25 1 -7.5497465596251425 -9.355816005057106 -7.901286828638072 0 0 0
53 1 -6.8780181264869045 -9.679986020277642 -10.36355681758679 0 0 0
27 1 -5.121789170214001 -10.760165449316984 -8.757195168611846 0 0 0
116 1 -0.5756242211057181 -11.044154082817812 -9.804775012980844 0 0 0
115 1 -1.407198263418147 -10.651066036455648 -7.580639160450837 0 0 0
118 1 -2.8740627987827807 -9.596083740187392 -9.065456607913813 0 0 0
184 1 -11.439624711500816 -6.786933292907887 -8.70473927502401 0 0 0
49 1 -9.272380233962075 -8.285086853534263 -9.458213616283118 0 0 0
58 1 -7.707127564455288 -6.80573088564784 -7.599430138786772 0 0 0
183 1 -9.82715549385157 -7.849803432108649 -7.202231657913506 0 0 0
202 1 -6.967643154733364 -7.156910998317992 -9.96833311489317 0 0 0
139 1 -4.712641954263562 -6.199610860042474 -10.263751676069923 0 0 0
119 1 -5.333260883987867 -8.258706025567477 -8.449962991189732 0 0 0
126 1 -5.206944356932986 -5.814977828326091 -8.029879564411328 0 0 0
117 1 -0.7727712118970764 -8.5139195543264 -9.44052987688252 0 0 0
112 1 -2.962425486688746 -7.195612164633351 -8.779089458924487 0 0 0
111 1 -1.4997217036334956 -8.314756034329982 -7.094182203089411 0 0 0
1104 1 -0.9964485136379739 -6.0650991347637895 -9.168732360231342 0 0 0
211 1 -13.027923142769321 -5.684338563119169 -10.345725632465168 0 0 0
233 1 -13.16418707697944 -3.3159886267208663 -10.066878010900563 0 0 0
210 1 -11.575366036797696 -4.433830325803429 -8.486795009669414 0 0 0
180 1 -9.249200850568567 -5.879746152220102 -9.11764728454961 0 0 0
197 1 -7.722445105007388 -4.339298049910676 -7.223863648276676 0 0 0
204 1 -9.282861277411088 -3.3329155451953145 -8.855842052744059 0 0 0
224 1 -6.965684816141407 -4.7979450381532605 -9.465181165146378 0 0 0
120 1 -4.784049656863743 -3.588384258105968 -9.897026585558201 0 0 0
220 1 -5.3804010413951975 -3.3621435439128025 -7.59298845432471 0 0 0
144 1 -3.0877691425443974 -4.6900623889498245 -8.368658622960018 0 0 0
149 1 -0.8003778428893131 -3.7187904002070677 -8.704987801257897 0 0 0
205 1 -11.81414307182279 -1.9090499955556322 -8.11733991328558 0 0 0
530 1 -13.294385164214619 -0.8581357913236047 -9.765978839317388 0 0 0
226 1 -9.652354683580084 -0.9743092911231237 -8.438851826145363 0 0 0
221 1 -7.009197985250293 -2.3200690050489605 -9.156734748742224 0 0 0
198 1 -7.929030186657724 -1.8939253392034363 -6.833873603352636 0 0 0
2 1 -4.859513313452561 -1.178115412350735 -9.587563046474507 0 0 0
218 1 -5.647510478535789 -0.8279523825438915 -7.202246217792742 0 0 0
114 1 -3.1868859241716 -2.1486657277849286 -7.936687292094346 0 0 0
147 1 -0.8819636946255613 -1.28865400540605 -8.40472633374996 0 0 0
44 1 -1.6438198816061114 -3.7181819525896067 -0.18897811416257682 0 0 0
78 1 -12.49241357986349 -13.750522567386657 -5.441773856224184 0 0 0
582 1 -10.298913944691291 -12.660849520298243 -5.819861683954846 0 1 0
638 1 -11.037115132694737 -12.303497084089749 -3.4949272721757936 0 1 0
52 1 -7.911619226149414 -13.967709732120095 -6.664165537458165 0 0 0
639 1 -8.606276525001691 -13.625704125080189 -4.223308294966124 0 1 0
88 1 -6.5444697289878215 -12.664483154291279 -4.660128812442988 0 0 0
57 1 -4.043167273425631 -13.959226965081443 -5.327945058306419 0 0 0
64 1 -1.9843648625850943 -12.714008731947134 -5.668025001708546 0 0 0
595 1 -0.3172212230372864 -13.96422485538399 -4.116812254989041 0 1 0
152 1 -12.118690982882093 -9.17930487524861 -6.825157179908483 0 0 0
98 1 -12.595527863428453 -11.228550570829636 -4.908270089821672 0 0 0
82 1 -10.384058883555126 -10.030910653116157 -5.426480141643937 0 0 0
56 1 -8.101488877740383 -11.487728476897953 -6.076733281294868 0 0 0
83 1 -8.843545612408565 -11.037668931211726 -3.7375956388532607 0 0 0
59 1 -8.333150700840017 -8.975015870439055 -5.685060978441337 0 0 0
62 1 -4.335004164333194 -11.539866064367857 -4.861540555567618 0 0 0
34 1 -3.701541481644437 -9.357861390390571 -6.700034849684279 0 0 0
61 1 -6.433645961686969 -10.102513649890012 -4.134402495967468 0 0 0
60 1 -5.972838486488169 -10.341231764687208 -6.444100590582027 0 0 0
28 1 -4.360892117858192 -8.870332367124071 -4.492568706673147 0 0 0
71 1 -0.43441408251498004 -11.453047541561606 -3.6057979195817094 0 0 0
30 1 -2.0494319386587208 -10.35609663243656 -5.123660794101829 0 0 0
154 1 -12.811807218552417 -8.633790311234243 -4.475988457820117 0 0 0
153 1 -12.107557478368008 -6.637442397981563 -6.407527770903507 0 0 0
951 1 -12.892714254648709 -6.2607747993806235 -4.0765064213863464 1 0 0
84 1 -10.594147618255825 -7.677659840862986 -4.946404241529207 0 0 0
175 1 -8.413182299759086 -6.585401671097329 -5.247623130110794 0 0 0
67 1 -6.695115123383754 -7.5453005601951295 -3.672424534475425 0 0 0
113 1 -3.7253306747698165 -6.899791728422698 -6.368859869448014 0 0 0
26 1 -6.116205613132018 -7.927787175597606 -5.9749370985658175 0 0 0
33 1 -4.411260209399712 -6.388414712741069 -3.9836084637876947 0 0 0
36 1 -2.2030850609966297 -7.911923859608356 -4.756859051994981 0 0 0
157 1 -10.718858522652544 -5.100332800364553 -4.524229178300718 0 0 0
181 1 -12.19942844408528 -3.9869632193327984 -6.097454508756794 0 0 0
155 1 -13.072229977111018 -3.76209370058786 -3.805195446783012 0 0 0
179 1 -10.005690694926237 -5.389752132924068 -6.7965617539838785 0 0 0
199 1 -10.095302937214809 -2.883284960718619 -6.458469122158056 0 0 0
193 1 -8.501021659676713 -4.042105037445085 -4.901348604595469 0 0 0
65 1 -5.993238637364666 -5.461545346003874 -5.6957781715661895 0 0 0
32 1 -3.8043639737577877 -4.400835377043824 -5.994682206219568 0 0 0
38 1 -4.624808455751154 -3.9798854145285443 -3.705320383882997 0 0 0
217 1 -6.220674863265362 -2.945953784894103 -5.263665920406277 0 0 0
48 1 -10.400834396586124 -14.527009204712336 -12.267557484422849 0 0 0
108 1 -1.4597912977052463 -5.798232701664141 -6.734708873224436 0 0 0
40 1 -2.130923390996861 -5.41189449908606 -4.454855521798052 0 0 0
148 1 -1.625692640073252 -3.2854658430384607 -6.317467092275931 0 0 0
109 1 -2.48766975194075 -2.9305176523732666 -4.05422376384521 0 0 0
1144 1 -0.0681498852866298 -9.015508286290075 -11.68469709800026 0 0 0
176 1 -10.778763240020591 -2.5731090796491394 -4.125214758851154 0 0 0
177 1 -12.32411682089771 -1.5740854944589433 -5.903546280731653 0 0 0
178 1 -13.141671781672999 -1.348693680590129 -3.5753497154177385 0 0 0
200 1 -10.246072747720781 -0.42635118708289177 -6.194999898568749 0 0 0
195 1 -8.578068834995904 -1.5701814991309693 -4.57446498930295 0 0 0
219 1 -6.375983281742878 -0.44933458540305615 -4.949806434669835 0 0 0
216 1 -4.007992353636006 -1.9605041733331259 -5.6805370121563055 0 0 0
151 1 -0.22291064503061442 -1.7872554864390011 -4.332711076664788 0 0 0
110 1 -2.5111586842653626 -0.602505388552796 -3.711044661020283 0 0 0
150 1 -1.7544597481494506 -0.8078103449842011 -6.195385336169449 0 0 0
687 1 -11.589069920943448 -14.414851388110353 -1.542112123157679 0 1 0
686 1 -13.148729728570968 -13.305921713936058 -3.08129704413874 0 1 0
101 1 -11.62405087078158 -11.93139536467894 -1.100272373822051 0 0 0
102 1 -9.422368243956376 -13.388846533316329 -1.9360592889823742 0 0 0
87 1 -7.2093715700884715 -12.199533030388217 -2.2320392780544047 0 0 0
104 1 -7.8466744459711615 -14.298033909591979 -0.39900201164224214 0 0 0
542 1 -4.942168184494506 -13.515425876515813 -3.007820798659006 0 1 0
92 1 -5.654142939623071 -13.389639475767076 -0.6861358375779893 0 0 0
96 1 -3.3083081749347567 -12.186528089372045 -0.957399735897388 0 0 0
63 1 -2.735092890129449 -12.563609693308615 -3.2640277481819755 0 0 0
488 1 -1.0675175716504732 -13.639582008057259 -1.7455476512751158 0 1 0
99 1 -13.393278991109863 -10.825586819004002 -2.554773527107301 0 0 0
103 1 -11.802173304757034 -9.408842835925615 -0.5409494232304919 0 0 0
81 1 -11.092057916130399 -9.786090959922143 -3.0347776606146137 0 0 0
85 1 -9.627295583470694 -10.746855068162525 -1.3541865903321177 0 0 0
91 1 -7.272930976056327 -9.672555076752227 -1.7614103212652168 0 0 0
86 1 -8.940010680308582 -8.625039178661218 -3.337481709271785 0 0 0
95 1 -4.975939956014075 -11.061527160613405 -2.5536099862829094 0 0 0
90 1 -5.681492547544702 -10.740529492332076 -0.2712336137609075 0 0 0
68 1 -3.5516389936641044 -9.802856692308628 -0.4869364732962893 0 0 0
37 1 -0.7369478321695588 -8.99515844796121 -3.1979146939270713 0 0 0
70 1 -1.2889670124388264 -10.995346290136728 -1.3763546350990516 0 0 0
69 1 -2.758159077596696 -10.016651746573505 -2.8773765958162727 0 0 0
164 1 -12.030315190840932 -6.789653558330783 -0.06944059441206818 0 0 0
162 1 -13.466100728177738 -8.356389066258533 -2.1154055701895036 0 0 0
100 1 -11.253567643984887 -7.334573063093026 -2.495087591268023 0 0 0
997 1 -0.9861968534775798 -1.4889385464483613 -2.08128514869599 0 0 0
89 1 -9.605807335110065 -8.357742032206438 -0.8865076936208123 0 0 0
168 1 -7.391091334119457 -7.118059904965723 -1.4876280602741137 0 0 0
174 1 -9.17171201036289 -6.150256285140925 -3.057805969817432 0 0 0
160 1 -9.803110692602814 -5.846699764100828 -0.719249540413001 0 0 0
66 1 -5.041557166348598 -8.714030427979045 -2.1640579259511625 0 0 0
72 1 -5.157121028871668 -6.0849227752453 -1.7534843457772133 0 0 0
624 1 -2.6433455795968914 -0.07817532037958053 -10.104535044769946 0 0 0
74 1 -1.290251250449293 -8.686353404379828 -0.7348336861424141 0 0 0
35 1 -2.8468268231097937 -7.643209821237908 -2.4446279041273016 0 0 0
42 1 -0.7072313671023647 -6.505695582332379 -2.761195174314162 0 0 0
41 1 -1.4083469236940651 -6.127030984191572 -0.4742741411578635 0 0 0
158 1 -11.516580178908985 -4.810816521550919 -2.233114170022848 0 0 0
170 1 -9.930760707711771 -3.4241640517739835 -0.21718181857336916 0 0 0
169 1 -9.234374849189724 -3.7519555795767197 -2.559397016798153 0 0 0
166 1 -7.550828447393461 -4.683204628894655 -0.9792255601509581 0 0 0
192 1 -6.8445159027961235 -5.0113335779754635 -3.4102991889159533 0 0 0
189 1 -5.424739315322926 -3.7103697935099333 -1.3173372350811832 0 0 0
73 1 -3.454812314497664 -7.32173154970561 -0.04698599881833232 0 0 0
39 1 -2.9785365682653993 -5.3094298943511244 -2.1283871123763642 0 0 0
1009 1 -0.949195213564467 -4.03333563401303 -2.4674683136557842 0 0 0
159 1 -11.684701421111045 -2.252293994514446 -1.8318474946903684 0 0 0
190 1 -7.086361517168737 -2.770260297676101 -2.889045245199842 0 0 0
480 1 -6.923857571257704 -0.17318599743018304 -2.5609026030782065 0 0 0
194 1 -9.366810467454169 -1.2005027047416252 -2.3197936424227272 0 0 0
191 1 -7.694909001649741 -2.3013174270084313 -0.5361614138503867 0 0 0
215 1 -4.70497445737012 -1.5634626765928026 -3.231014466734008 0 0 0
188 1 -5.443471481970947 -1.3513134487038823 -0.9810581704013224 0 0 0
356 1 -12.13367204851474 -4.235683624549738 -0.02513794683317272 0 0 0
7 1 -7.703052019052508 -6.470675179728119 -13.793094289913718 0 0 0
651 1 -10.236939816939024 -0.005275029280879195 -12.364087487101711 0 0 0
366 1 -10.696515139509941 -12.732433627547088 2.7177510657332036 0 0 0
899 1 -12.968514838031544 -14.044398202127933 3.121754955913474 0 1 0
832 1 -12.357806289311617 -14.163533536933361 0.7285232139489608 0 1 0
897 1 -10.026645505130727 -13.066487661130822 0.35677392221459137 0 1 0
368 1 -8.490856573245319 -14.181476146507098 2.009433578776509 0 0 0
367 1 -8.539492542851876 -11.583335884540492 2.429346697995822 0 0 0
362 1 -7.95967231727543 -11.91246866834427 0.08287532525637964 0 0 0
269 1 -6.341084484742676 -13.1112588949505 1.7105380542214803 0 0 0
261 1 -4.1024635351687095 -11.900687980484804 1.3652747078931728 0 0 0
265 1 -4.754181239132523 -14.225587355171157 3.221218248076454 0 0 0
760 1 -1.384394944318105 -0.8208083890547009 12.891181351800757 0 0 0
266 1 -2.5223591824063245 -13.20523250051524 2.959542447646342 0 0 0
874 1 -1.7257566516745904 -13.309159574051348 0.6428021388487011 0 1 0
253 1 -0.2543955429140752 -12.097357515574899 2.5697654601084423 0 0 0
428 1 -2.764321032048416 -2.241676276790784 11.1427816354336 0 0 0
1370 1 -12.480419484991453 -11.678552363077111 1.2072176760144657 1 0 0
373 1 -12.632996103068052 -9.052954096123235 1.8356071688588873 0 0 0
365 1 -10.82844667912618 -10.471046428731913 3.3535420736511554 0 0 0
375 1 -10.214858577519351 -10.48244141811221 0.8896680155088816 0 0 0
337 1 -8.697293932494802 -9.112503455861733 2.9519437414335883 0 0 0
361 1 -7.993029871532812 -9.405995134043796 0.5896262909324381 0 0 0
339 1 -6.301874460680372 -10.566608306814581 2.121170846779762 0 0 0
260 1 -4.058803293056171 -9.467370343320827 1.8454990825023678 0 0 0
262 1 -1.7757320749554513 -10.715828485351427 1.0211613323376962 0 0 0
252 1 -0.32236024967024157 -9.524589137756498 3.107580340610415 0 0 0
251 1 -2.5768806892415217 -10.770093096628145 3.330809277959272 0 0 0
359 1 -12.885237071462983 -6.451293393404807 2.234223787420408 0 0 0
360 1 -10.430034602857589 -7.969667952372548 1.44197308460787 0 0 0
329 1 -8.127620485822025 -7.031773421515925 1.0073571442507028 0 0 0
336 1 -8.848841107418924 -6.602626438872468 3.10101614289508 0 0 0
331 1 -5.716887531026246 -8.299628947094138 0.1089316227063648 0 0 0
338 1 -6.341520826424395 -8.094360035160665 2.4483711983223024 0 0 0
307 1 -4.262043932507719 -7.027542548144512 2.2173719885209877 0 0 0
330 1 -5.964356529282951 -5.939070866794861 0.5168895111019012 0 0 0
248 1 -1.864987557784918 -8.253758690998904 1.4462460949223992 0 0 0
238 1 -0.4124978624912625 -7.0095299901600425 3.6182933600213723 0 0 0
161 1 -10.539192120370393 -5.395054394229653 1.6734692436435221 0 0 0
357 1 -12.74297405245774 -3.991583085714753 2.4216223668949013 0 0 0
327 1 -10.603353789080906 -3.036174478905842 2.127560310962151 0 0 0
267 1 -0.14254539551297185 -14.462817992049475 2.0500867039438795 0 0 0
328 1 -8.279553890448428 -4.47239885980709 1.3474478943442172 0 0 0
309 1 -6.5787032889009405 -5.614443868298521 2.9136092363187487 0 0 0
308 1 -4.397969961028478 -4.535561151213534 2.6505104011692033 0 0 0
317 1 -6.0521580863446856 -3.5282679255388913 0.8994234001347756 0 0 0
315 1 -3.72074945705247 -4.904374704779261 0.3089602553128774 0 0 0
310 1 -6.794630932423095 -3.1695102375494777 3.252907508474106 0 0 0
247 1 -2.026181747261255 -5.902825334232368 1.9140731581252322 0 0 0
418 1 -2.234467571153875 -3.377801493828404 2.1291059749797316 0 0 0
325 1 -12.947608603287806 -1.6315746082787168 2.8751919117436593 0 0 0
326 1 -10.82627491204348 -0.5181462855102588 2.495240920070408 0 0 0
323 1 -12.300527816174538 -1.8546657099708668 0.46923367963219675 0 0 0
319 1 -8.32323654745084 -1.9234687112900808 1.8035369064589037 0 0 0
1195 1 -0.1204304591875136 -12.97004755342502 8.805674729972285 0 0 0
318 1 -6.218003606491902 -1.023041247607832 1.3110640765467103 0 0 0
420 1 -4.528050217955702 -1.952296546285103 2.8546494589379243 0 0 0
316 1 -3.812198162919586 -2.371141055841738 0.41152755311742517 0 0 0
419 1 -2.3090565714395446 -0.9397269194922551 2.471682015997814 0 0 0
422 1 -1.5977409252261197 -1.1470894510678757 0.2616863340509017 0 0 0
759 1 -0.593344923184155 -1.240964328155485 10.548577299654145 0 0 0
376 1 -13.093375262282091 -11.75237821813522 3.566777918784279 0 0 0
876 1 -11.477681726948264 -12.897704312869658 5.106743776100252 0 1 0
1383 1 -0.14707452216240746 -10.690998753671698 9.37751521198243 0 0 0
350 1 -7.673706743344413 -13.043172710299048 6.38290060208568 0 0 0
372 1 -9.102851631706796 -13.976123626325144 4.315932470969052 0 0 0
349 1 -9.845412716197991 -13.956899954701923 6.680447898627747 0 0 0
343 1 -9.180635325679955 -11.60339603099872 4.813237103263827 0 0 0
345 1 -6.980954476089433 -12.81240069902996 3.967893738524552 0 0 0
268 1 -5.41037224452746 -14.131078127006445 5.503195546934439 0 0 0
275 1 -5.46195969657998 -11.76945405041542 6.035800824411126 0 0 0
264 1 -4.835370102696222 -11.855736800517175 3.6750461538976076 0 0 0
388 1 -9.921353710683531 -9.933277049977914 13.699110410523275 0 0 0
255 1 -3.2923043643421046 -13.108078716460563 5.204346025316845 0 0 0
862 1 -1.0709641168127124 -12.332421857432973 4.907564135072278 0 1 0
1190 1 -1.6693899020631466 -14.341132062208551 6.7643098687664995 0 0 0
364 1 -13.258964017931838 -9.593703620140365 4.178707899228957 0 0 0
371 1 -11.724026836518508 -10.680122992115702 5.716593733308752 0 0 0
344 1 -7.073400241065596 -10.27949876706598 4.339062473731566 0 0 0
342 1 -9.322487344187042 -9.233263676878185 5.340770062691398 0 0 0
277 1 -7.666897979939396 -10.669649225446996 6.74188783607736 0 0 0
299 1 -4.90283799526803 -9.101113802000874 4.070413889767387 0 0 0
276 1 -5.514130346483785 -9.305558067541646 6.358948966026308 0 0 0
254 1 -3.309755019627792 -10.516560020524047 5.569493883582922 0 0 0
256 1 -1.0304782174241964 -10.077996354992269 5.20751868162413 0 0 0
335 1 -11.023110320306568 -7.79957630829124 3.7936262528545512 0 0 0
363 1 -11.546900785004402 -8.434799714433385 6.054781344810024 0 0 0
358 1 -13.22340553816813 -7.363776539036095 4.511963344384679 0 0 0
340 1 -11.755824038386129 -6.04194225148855 6.273355331529263 0 0 0
301 1 -7.148088680665127 -7.715226360137679 4.766192214588244 0 0 0
303 1 -9.412123142567715 -6.8221660356720335 5.6700201458345525 0 0 0
300 1 -4.9538708016338955 -6.5659365596081205 4.5712370263028 0 0 0
401 1 -3.5357936546303197 -7.702523235179772 6.231557752200565 0 0 0
250 1 -2.6849655704560877 -8.179383116605042 3.842718571003793 0 0 0
240 1 -1.1627825043666817 -7.89146578007676 5.704623989752822 0 0 0
334 1 -11.176207126824796 -5.216764579929878 4.020178661572668 0 0 0
305 1 -11.80832735780656 -3.7220960435486354 6.581114166021688 0 0 0
333 1 -13.491167110031737 -5.165236435013048 4.707795896835222 0 0 0
311 1 -8.97582425273003 -4.175741412827005 3.7024414142213473 0 0 0
302 1 -7.339641205606668 -5.460164547696211 5.206717401198937 0 0 0
304 1 -9.648291271436975 -4.594416192512327 5.929600405260899 0 0 0
402 1 -3.5368721957507283 -5.197598973538346 6.543340579650035 0 0 0
412 1 -5.1651533394269755 -4.130591960351296 4.8541974919768585 0 0 0
410 1 -2.711085318298725 -5.597422052387264 4.21667913048373 0 0 0
237 1 -0.6218310255215052 -4.373990773778333 3.7982214782655888 0 0 0
239 1 -1.2417809953474404 -5.673550853867596 6.063124440340971 0 0 0
444 1 -1.37328030415223 -3.309163297417678 6.166000309457889 0 0 0
411 1 -3.0404326733113702 -3.0982037090999572 4.5260473856775505 0 0 0
322 1 -10.040268113080389 -1.0035847949905143 0.175724869324549 0 0 0
313 1 -11.043104735051532 -2.695692501149143 4.378893902268906 0 0 0
306 1 -11.87395121836332 -1.4078121349236348 6.903415799449075 0 0 0
314 1 -11.390670061579895 -0.21015564668438635 4.667112452461598 0 0 0
414 1 -7.319103790526864 -2.920602353104572 5.717673264181794 0 0 0
415 1 -7.667989128131859 -0.4275815247440331 5.91916108757702 0 0 0
312 1 -9.04807241414061 -1.4377764671998907 3.937063526173791 0 0 0
416 1 -9.682781981518566 -2.362153038302379 6.207330455921706 0 0 0
421 1 -6.793735928524145 -0.5515423534936108 3.594935123898612 0 0 0
413 1 -5.2753036116704255 -1.4869176401806126 5.2612508821997395 0 0 0
442 1 -3.6430064996378206 -2.7451868669476536 6.82153118922653 0 0 0
439 1 -0.6868750455693817 -1.8289192962992065 4.205826950070183 0 0 0
438 1 -2.946944770729811 -0.6048425988088244 4.838922254183878 0 0 0
443 1 -1.4535932491247117 -1.0986220130063753 6.6107266244104785 0 0 0
369 1 -12.22092056781179 -12.84876704385846 7.585779585635745 0 0 0
1279 1 -13.008486796552123 -12.51732205338062 9.924033632198253 1 0 0
347 1 -10.418112903904873 -14.12175387997885 9.102210843771026 0 0 0
348 1 -8.351134889830954 -12.87946554461854 8.759357714236025 0 0 0
287 1 -6.000804351096409 -14.110187853546522 7.887484426005855 0 0 0
258 1 -3.938212459802564 -13.107653092875552 7.675790167510346 0 0 0
382 1 -4.526076856030059 -12.999104859046453 10.070656317858763 0 0 0
285 1 -6.763599767055064 -14.123334939263378 10.243384892031635 0 0 0
1238 1 -13.658004177780573 -10.036181226726963 12.603045326188134 1 0 0
244 1 -2.2907696198968477 -14.14649664451006 9.07947600177486 0 0 0
242 1 -1.7926820978147457 -11.917367182416362 7.202594729133157 0 0 0
243 1 -2.2934335253652165 -11.911320031339377 9.661616520054029 0 0 0
283 1 -10.7827568666763 -11.667606867176834 9.528562103768625 0 0 0
346 1 -12.214868314977508 -10.38375220351235 8.003725073423997 0 0 0
282 1 -10.723816521976506 -9.19016039441304 9.955958806983201 0 0 0
341 1 -9.922590442793888 -11.848948526455748 7.241807211340273 0 0 0
284 1 -8.349558074185424 -10.582333782515223 9.144376085817889 0 0 0
279 1 -10.04213591021887 -9.389453049649156 7.678226587222337 0 0 0
286 1 -6.18054083789046 -11.735207918852108 8.634150181187966 0 0 0
391 1 -3.986124122303135 -10.76440972978236 8.195310452484456 0 0 0
393 1 -6.285592949683507 -9.453407781525634 8.704562922438605 0 0 0
241 1 -1.8844156056670673 -9.648958541798194 7.684961958634577 0 0 0
462 1 -2.3693908396035734 -9.42035339143246 10.073393807416409 0 0 0
332 1 -13.327101272798568 -2.9945203078600766 4.991524724446851 0 0 0
289 1 -12.275542104219657 -8.091185809374085 8.366261544746685 0 0 0
397 1 -10.934779508001855 -6.640441786077645 10.42278853893098 0 0 0
288 1 -10.131994245309437 -7.014364550220268 8.025825114057813 0 0 0
278 1 -7.886980105951409 -8.298747527544826 7.296798894052859 0 0 0
395 1 -8.549794821738942 -7.983664732698683 9.509573213465202 0 0 0
405 1 -7.9044888828407425 -5.978343951044804 7.632754818749547 0 0 0
403 1 -5.772594603957097 -6.9701931066815295 6.786274627401557 0 0 0
392 1 -3.9597338500812675 -8.491465934586092 8.535495280626481 0 0 0
394 1 -6.337675528011968 -6.968226187089256 9.19804096137283 0 0 0
450 1 -4.232215041287807 -6.0713273061210735 8.628741067950681 0 0 0
270 1 -0.253028608512901 -8.339538090995694 9.695798872223424 0 0 0
452 1 -1.8789453191078636 -7.214294165476056 8.030306286630175 0 0 0
431 1 -0.2642923558253596 -6.0012702180467326 10.09742669151482 0 0 0
290 1 -12.380212310932098 -5.626898515955997 8.600096837670524 0 0 0
409 1 -12.540341447830398 -3.2821122502128564 9.077345448232276 0 0 0
407 1 -10.29477622785808 -4.611286759802695 8.337650272648254 0 0 0
396 1 -8.7197584848805 -5.67007201221835 9.997413205126769 0 0 0
406 1 -8.100181189882559 -3.5901428845195085 7.8822901689717995 0 0 0
404 1 -5.846218403625126 -4.55850228896791 7.135108622006943 0 0 0
448 1 -6.462967218075789 -4.652220752321464 9.593049582170067 0 0 0
449 1 -4.270064877706551 -3.6896551379116875 9.015656655240956 0 0 0
451 1 -1.9132537042323925 -4.830534958713152 8.23626075502299 0 0 0
430 1 -0.47414446775319874 -3.7317575286678224 10.343804307979372 0 0 0
804 1 -12.751090537330056 -0.9439593790929006 9.348825287249173 0 0 0
408 1 -10.305354747921749 -2.1516902263716027 8.774661525741536 0 0 0
827 1 -8.155323651253289 -1.2970808769181854 8.28299705184785 0 0 0
447 1 -6.577137368254591 -2.2327809646331236 9.959324391832844 0 0 0
441 1 -3.749031543349238 -0.3772011194146092 7.097930250276896 0 0 0
793 1 -4.3575753577985665 -1.3473297227494356 9.338260526322735 0 0 0
440 1 -5.962518918278793 -2.189575800014172 7.6474353782409 0 0 0
873 1 -3.9475120876255616 -14.458007401229315 0.8669915952530491 0 1 0
425 1 -2.1540836721724386 -2.498740076614096 8.744797498625115 0 0 0
45 1 -12.048620296894006 -13.543811480080898 13.648787451278938 0 0 -1
5 1 -5.610578651081246 -3.026912330909548 13.799095155770885 0 0 -1
351 1 -11.30136070419026 -13.738275945906512 11.42314535140168 0 0 0
381 1 -9.81738057536437 -12.42099241173973 13.472030131113673 0 0 0
295 1 -9.066511797733309 -12.708430349095437 11.197295150035153 0 0 0
298 1 -7.4884595721615845 -13.882047215187272 12.610010890508672 0 0 0
378 1 -5.2486790877841205 -12.674470319630464 12.28712816473968 0 0 0
384 1 -7.015473962505287 -11.718902532697296 10.719833264932412 0 0 0
245 1 -2.876762733641085 -14.05716320035032 11.382120543821426 0 0 0
273 1 -1.3910019836785175 -12.661579789514793 13.549951601502357 0 0 0
272 1 -0.7784408106975054 -12.963967909053473 11.274037525966456 0 0 0
281 1 -12.928447746438165 -10.050872421180983 10.279805805433394 0 0 0
293 1 -11.35317072480213 -11.387842432261953 11.792611800738552 0 0 0
280 1 -11.543684029267327 -8.864006597362756 12.252803113382924 0 0 0
380 1 -7.633502641644316 -11.40451739688097 13.100776045619295 0 0 0
386 1 -9.100287499676778 -10.189259412869974 11.406127016903543 0 0 0
463 1 -7.752751571149397 -8.93401901529747 13.374942798446597 0 0 0
385 1 -6.921892060542147 -9.329066310560762 11.094052916803157 0 0 0
383 1 -4.717654319633262 -10.673282271339298 10.541851718563866 0 0 0