LAMMPS data file via write_data, version 2 Aug 2023, timestep = 0, units = metal

1862 atoms
3 atom types

-13.599685278704685 13.599685278704685 xlo xhi
-14.461420358247738 14.461420358247738 ylo yhi
-13.886882003764486 13.886882003764486 zlo zhi

Masses

1 55.847
2 1.008
3 1.008

Atoms # atomic

944 1 -12.555297527594272 -11.66061272523324 -9.98596303176899 0 0 0
949 1 -10.007021392030696 -10.97171223700237 -10.403734856726988 0 0 0
1411 1 -11.312580034377929 -12.27386472678409 -11.97304265258797 0 1 0
931 1 -13.112111777064229 -10.901529423664485 -12.676661702157709 1 0 1
818 1 -8.573702024876594 -11.4668750781307 -12.277533080804222 0 0 1
815 1 -10.4894567241983 -10.2236036350704 -13.179513969242285 0 0 1
942 1 -10.749934541566123 -13.117642558064661 -9.19141344098959 0 0 0
984 1 -8.641467422451221 -9.539312580521386 -8.756934699394577 0 0 0
946 1 -11.80730621345623 -9.473429628289217 -11.217365399459405 0 0 0
934 1 -9.390746789030178 -13.5569283213403 -11.179582369962459 0 0 0
814 1 -12.64515561489575 -13.74237238966792 -13.545902987089715 0 0 1
1571 1 -8.721346486925992 -14.450550142430908 -8.515641678440694 0 1 0
932 1 -13.421963100706 -13.744172364775315 -9.029999316971265 0 0 0
945 1 -13.242318163706397 -9.090826026623402 -9.280245908590135 0 0 0
975 1 -11.283451865720718 -10.402901928138757 -8.381486130068527 0 0 0
1409 1 -12.08745192433107 -14.44530678610032 -10.951700329711784 0 1 0
937 1 -7.9694837118908275 -14.237293427284278 -13.168907907932905 0 0 0
983 1 -8.03366006582487 -12.342305594845085 -9.511144647248361 0 0 0
819 1 -7.7200195718241575 -9.463846674342385 -13.558962487249584 0 0 1
950 1 -7.174931415994252 -10.265751209760317 -10.795759588232556 0 0 0
953 1 -3.927240179620993 -12.152382549786171 -12.006612679209445 0 0 0
955 1 -5.828672275117306 -10.780154623973605 -12.678025883146038 0 0 0
993 1 -5.339606066855616 -11.358926009643145 -10.064575446967837 0 0 0
994 1 -4.349063380743329 -9.3171698770014 -11.258141332895082 0 0 0
1002 1 -2.9970459526631448 -10.128032950425325 -13.029136896040804 0 0 0
998 1 -3.442116143163039 -12.857557601788553 -9.371721334674344 0 0 0
954 1 -6.765111280120483 -12.882765638316641 -11.617357241318365 0 0 0
956 1 -5.312427150894942 -13.498713600198567 -13.52107676570451 0 0 0
948 1 -6.067967557416098 -13.637722759089225 -8.999168661788008 0 0 0
1066 1 -3.8467980616386406 -10.300360828333854 -8.53078811812827 0 0 0
1595 1 -4.722032739076798 -14.144879841045718 -10.832828116898634 0 1 0
985 1 -5.84332959830841 -8.899226369797274 -9.158505024366853 0 0 0
1000 1 -2.552383521226391 -10.794265544155135 -10.43354341525635 0 0 0
959 1 0.8945675327899085 -12.61121959399386 -11.877640703213737 0 0 0
1005 1 2.196018965464795 -11.232571702639996 -10.323039473615413 0 0 0
1007 1 -1.13621467923954 -11.455258704261988 -12.574327833522782 0 0 0
1087 1 0.15905762256947398 -9.92945291208792 -11.06734991845537 0 0 0
1013 1 1.6473489253918903 -10.600480808674249 -12.966895425731643 0 0 0
999 1 -0.5490567517356837 -12.026943248601285 -9.852509110704451 0 0 0
1006 1 -1.7671321659602803 -13.340275622228337 -11.364486886083789 0 0 0
1078 1 -0.9847478852547216 -9.45662568352516 -8.988675706440551 0 0 0
1721 1 1.380702463290742 -13.253721988915359 -9.116128291696345 0 1 0
1008 1 -0.28428368402508575 -9.36528916089273 -13.584805569690607 0 0 0
1607 1 -1.460669459787221 -14.047050397033592 -8.677232420226744 0 1 0
1624 1 2.794165992937108 -13.769305468708255 -11.05325516624437 0 1 0
960 1 -0.531307952896718 -14.07486376531463 -13.21509479052148 0 0 0
1011 1 2.2716690161436617 -13.170812273438589 -13.725300398037934 0 0 0
1098 1 3.101082686960167 -9.214181792520325 -11.484122958422248 0 0 0
1012 1 3.7418241274525155 -11.789705677207937 -12.223242824632184 0 0 0
1010 1 4.354921078387948 -12.552366049432624 -9.593658042712338 0 0 0
1014 1 7.190839482376946 -11.763299905822972 -10.183875986482073 0 0 0
1107 1 4.56548520092174 -9.781731382094291 -13.413335243266427 0 0 0
1015 1 5.781263551202192 -13.074817938684054 -11.591248276522794 0 0 0
1103 1 6.4341107489046205 -13.84959290825952 -8.921736298623884 0 0 0
1105 1 5.103709773660379 -10.513478194543023 -10.772349564353888 0 0 0
1016 1 6.488210826321341 -11.055336079169093 -12.747325362406652 0 0 0
1112 1 7.975846293670623 -9.774723447747753 -11.183626059490416 0 0 0
905 1 7.153676663684605 -13.81819204211118 -13.580024355309272 0 0 1
1096 1 3.8342313072909544 -9.85652482467792 -8.76717286234792 0 0 0
1234 1 6.572101118666636 -9.095110908282102 -9.229160319819947 0 0 0
1244 1 8.608586881803818 -10.392791785123217 -8.51121946056995 0 0 0
1017 1 8.439139883342056 -12.493581777019552 -12.184967075798685 0 0 0
911 1 7.342797837652165 -9.13882144797153 -13.885296269869773 0 0 1
935 1 13.218433416996403 -13.026228665914205 -11.628017983881142 -1 0 0
1111 1 9.172685576135004 -13.12344179426393 -9.366078454531923 0 0 0
933 1 12.620510853698773 -10.326099094601913 -10.762602106983586 -1 0 0
1113 1 9.97888810109617 -11.183444703415912 -10.48289518092445 0 0 0
1117 1 11.337795910798667 -11.589353997749981 -12.497326668575068 0 0 0
1412 1 11.886978562425499 -12.438365094389587 -9.679961977088738 -1 1 0
1757 1 10.434499413300044 -13.699794805288052 -11.27859964349771 0 1 0
1019 1 9.331209919163792 -10.273772073436149 -13.166450229059139 0 0 0
940 1 11.271624907760787 -9.844807315157858 -8.958746257310057 -1 0 0
1118 1 12.148351006270152 -9.42925664607326 -13.485321816581191 0 0 0
1020 1 11.778813179545905 -14.381658840300402 -13.290614368579957 0 0 0
1252 1 10.66621847911719 -9.066496046800538 -11.580195348818512 0 0 0
1110 1 11.015952987990831 14.379305303537015 -8.632653701222456 0 -1 0
951 1 -9.035150429246292 -8.777869519545712 -11.679056926090844 0 0 0
947 1 -10.914897968254342 -7.498861701978011 -12.218046767410655 0 0 0
977 1 -12.272973244626161 -6.937649370990974 -10.157406642459392 0 0 0
978 1 -9.639682589597578 -6.122421843715525 -10.59951734838808 0 0 0
979 1 -11.53544893138788 -4.834090483487254 -11.429647419679442 0 0 0
986 1 -10.342059339297883 -8.290087783283724 -9.59520141598735 0 0 0
1042 1 -10.90684315256252 -5.635214026406974 -8.547604345307045 0 0 0
941 1 -13.081675033477362 -6.22673957146146 -12.879374720296825 0 0 0
980 1 -8.819223088373251 -4.079439874877465 -11.808923191839135 0 0 0
988 1 -10.121125184024578 -5.464505026882611 -13.379600416599553 0 0 0
1030 1 -12.908552732377645 -4.350674243783221 -9.499408225325855 0 0 0
1044 1 -10.26854493029704 -3.5609460788206064 -9.678285288692695 0 0 0
1043 1 -8.182262053485198 -4.91456429034994 -9.021141176690893 0 0 0
952 1 -8.251022848114411 -6.7752837273593745 -12.658755303121298 0 0 0
971 1 -13.553552023003792 -3.6094415616904705 -12.213340749817148 0 0 0
1080 1 -3.057300258609665 -8.107601288436525 -9.552188121780883 0 0 0
995 1 -6.353227589782943 -8.192121527652514 -11.839551577028567 0 0 0
1055 1 -7.7379723507151965 -7.616963329940427 -9.878742162695591 0 0 0
996 1 -3.543617471534974 -7.342297598059759 -12.327282326554304 0 0 0
1068 1 -5.038473653994023 -6.737533439276824 -10.330458786634729 0 0 0
987 1 -6.958244768447725 -5.524759101698159 -11.019038094706202 0 0 0
1070 1 -4.020181471569176 -4.626440205480501 -11.448448864014079 0 0 0
825 1 -5.492115330911497 -6.114242549500251 -12.98718197026459 0 0 1
1184 1 -5.465422946827912 -4.093120255169129 -9.457598632595767 0 0 0
1069 1 -3.529550208333932 -5.510873116055519 -8.896410266586091 0 0 0
831 1 -2.704568567411126 -5.378838184366169 -13.403328353802934 0 0 1
1057 1 -6.095575856699873 -3.5052489753332416 -12.244726232849036 0 0 0
989 1 -7.449562792229811 -4.855941484162207 -13.71625820814274 0 0 0
823 1 -4.964140196240535 -8.750248472809446 -13.797779571649576 0 0 1
1056 1 -6.231693161977619 -6.179242240352323 -8.221400954385906 0 0 0
1199 1 -2.6556130706864547 -3.3129878308154534 -9.89373017330119 0 0 0
1001 1 -1.6354907585009553 -8.571025387463614 -11.509788352683769 0 0 0
1077 1 1.7863918392922802 -8.656701621601009 -9.289103203396905 0 0 0
1081 1 -2.156887895019585 -6.044285636401916 -10.66126790229346 0 0 0
1009 1 1.1299535890003742 -7.997104432815146 -12.167949953003578 0 0 0
1082 1 -1.3143509454611682 -3.9578170276687903 -11.906798600370507 0 0 0
1089 1 -0.2058156297149374 -7.462400653067476 -10.14538623534319 0 0 0
1003 1 -0.8620137340826108 -6.674063558760659 -12.866330905562943 0 0 0
1091 1 0.6319486310373676 -5.313367830158754 -11.273296190189773 0 0 0
1088 1 2.650226752961645 -6.650330200085241 -10.604941216422269 0 0 0
1198 1 -0.7152482997647098 -4.653809587335848 -9.044449424852264 0 0 0
1100 1 2.0408799984593955 -6.0041698812251045 -13.23786595523474 0 0 0
1212 1 1.9418193539287376 -3.9148922635265073 -9.679158231819784 0 0 0
1210 1 1.2280699764860046 -5.965253131683035 -8.604863280330203 0 0 0
839 1 0.06727347122010663 -4.676518061380381 -13.843384485550065 0 0 1
1092 1 1.3279041778527514 -3.247879697316675 -12.297105174102988 0 0 0
1090 1 3.488047527279642 -4.602124001566288 -11.74716075461097 0 0 0
1211 1 3.9177991355670745 -5.169578626937978 -9.097441156348925 0 0 0
1106 1 5.945183108693259 -8.442081778843967 -11.84645946031382 0 0 0
1097 1 4.701163659143935 -7.877987079354486 -9.911793469927467 0 0 0
1099 1 4.008058289537024 -7.2943165624399295 -12.726346378967177 0 0 0
1236 1 5.410540159550278 -5.815580991066495 -11.057606897295456 0 0 0
1246 1 7.466679284168231 -7.186087156942151 -10.30348289983004 0 0 0
1108 1 6.790302295481764 -6.518459440443612 -12.941389327694205 0 0 0
1224 1 6.824261928117293 -4.410198110041486 -9.539008221554754 0 0 0
1248 1 8.318699783296312 -5.034969506384726 -11.40404741092302 0 0 0
1238 1 6.339159260064802 -3.874860475144404 -12.320631947706044 0 0 0
1222 1 6.002247384063773 -6.4990336861356885 -8.315410598146684 0 0 0
1101 1 4.804385496555996 -5.068110681624841 -13.758566144168588 0 0 0
1237 1 8.722585883668453 -5.695314147571175 -8.769240265880661 0 0 0
1114 1 8.757991980795689 -7.792492345532319 -12.181421097087684 0 0 0
1360 1 4.9657796792382545 -3.066092964541756 -10.22629228933043 0 0 0
968 1 13.39369936928932 -8.288113283947798 -11.764264772496407 -1 0 0
1247 1 10.101462229504806 -6.283848462891166 -10.790191999193322 0 0 0
1253 1 11.513708564669388 -6.872158353198471 -12.708766268801122 0 0 0
1397 1 12.008567617829675 -7.703098096138049 -9.85701038940024 0 0 0
1398 1 12.879463739583192 -5.729289474204364 -11.022116162204478 0 0 0
1245 1 9.394080749053893 -8.402598787153973 -9.605059780357596 0 0 0
1389 1 11.458627396061344 -5.041560272760719 -9.155237110965857 0 0 0
1249 1 11.091475512352483 -4.247753325982263 -11.831566535812943 0 0 0
1390 1 9.630325972432592 -3.5568435237374896 -9.99673806566727 0 0 0
1115 1 9.529257438170072 -5.656862476209687 -13.50337732305693 0 0 0
969 1 13.435150610459777 -6.381692547659355 -8.315925810900772 -1 0 0
1031 1 -9.297211261114683 -1.5277491977336535 -10.923466697543223 0 0 0
1046 1 -10.83209790192965 -2.81483716610086 -12.518627775145264 0 0 0
1033 1 -11.333704763304617 -0.20266435498275293 -11.682397788158456 0 0 0
1139 1 -12.656613897780197 0.41062145971739916 -9.747897201436086 0 0 0
1548 1 -12.152783873472583 -2.26681269079101 -10.617756337652164 1 0 0
1137 1 -10.820715379043708 -0.9219553040522754 -8.942243009111174 0 0 0
1047 1 -8.527529557334173 0.45201033034158833 -12.090194701349715 0 0 0
1141 1 -13.250183386137394 1.3230500828304006 -12.552828696640404 0 0 0
1155 1 -9.984459319442191 1.201374786067598 -10.03614510015285 0 0 0
1157 1 -10.557026415395619 1.853089084296938 -12.88592297969996 0 0 0
470 1 -12.566979478043127 -1.4925749531789752 -13.424932162591704 0 0 1
675 1 -9.9421087337686 -0.7070355900375418 -13.64885286848427 0 0 1
1543 1 -13.413572095693986 -1.6914759347213728 -8.658706450400452 1 0 0
1269 1 -11.337387330547156 1.763777515455173 -8.28817375553778 0 0 0
1154 1 -8.041900450148123 -0.2541488349086638 -9.415313384359749 0 0 0
1059 1 -7.964583940823926 -2.029508586646065 -12.899857392317047 0 0 0
1153 1 -8.802595271773178 -2.156006920704085 -8.318122401814676 0 0 0
1045 1 -7.467010438936424 -3.0022389871329906 -10.223656281873714 0 0 0
1071 1 -3.3180599404260125 -2.555365871340836 -12.539857667886006 0 0 0
1058 1 -4.731817189294141 -2.0475600239932366 -10.551528396903153 0 0 0
1156 1 -7.132361237821798 1.8938240701285043 -10.547996176224697 0 0 0
1186 1 -3.934559848583305 -0.024369405748302597 -11.758575618060972 0 0 0
1060 1 -5.861861962279565 1.2818416239481571 -12.497572792957722 0 0 0
1170 1 -6.521269430019819 -0.7962327093678141 -11.333694703107572 0 0 0
1315 1 -5.206315693056492 0.6193852569880711 -9.765300165008497 0 0 0
1072 1 -5.215955554427758 -1.496358294526308 -13.348261435795443 0 0 0
1298 1 -3.387249790186077 -0.7446512388635806 -9.048755554135353 0 0 0
1169 1 -6.068339272519316 -1.2994429701238772 -8.635737174705895 0 0 0
1188 1 -3.1416915070068576 1.8750624726477145 -12.968229553927422 0 0 0
1073 1 -2.5312985490503994 -0.6257785416083141 -13.784763924407635 0 0 0
1465 1 -3.892572814098143 2.0484818001918885 -8.27884139057426 0 0 0
1331 1 -2.5479160447628413 1.2298751368587109 -10.2153922636235 0 0 0
1200 1 0.023973365037264216 -2.55200891166238 -10.22047901167078 0 0 0
1185 1 -1.9833851917644783 -1.139195078982718 -11.048173156579475 0 0 0
1083 1 -0.591181697242531 -1.9791422812574169 -12.922901357793014 0 0 0
1201 1 -0.9742905790926795 0.7595785933702555 -12.288233101948403 0 0 0
1202 1 1.6583022474218314 1.4881690739089386 -12.784704332535206 0 0 0
1346 1 0.8894098636013599 -0.6966243695441747 -11.42851492495909 0 0 0
1330 1 -0.4981387182003214 0.11209573980629273 -9.591106964866825 0 0 0
1345 1 2.3909162480628687 0.7262559261090775 -10.100839496636738 0 0 0
1214 1 2.1884425087837034 -1.196868675257253 -13.448984067738719 0 0 0
1328 1 1.4187867384241422 -1.1201084824179581 -8.926385187452034 0 0 0
1213 1 2.808807716978931 -1.8445628877953144 -10.892456681321967 0 0 0
1329 1 -1.438655403153378 -1.9761656890961898 -8.257268988002092 0 0 0
1332 1 0.31660447213065623 1.967662422337332 -10.817799751618633 0 0 0
1225 1 4.219269633837312 -2.4688215336107966 -12.847638110714518 0 0 0
1215 1 3.6868223158293087 0.14331571859795034 -12.110947667943435 0 0 0
1376 1 7.630621216474944 -2.455984944363692 -10.736736770799796 0 0 0
1226 1 5.81275440173218 -1.125608151698593 -11.462800055327627 0 0 0
1361 1 4.301646583932525 -0.4602223492619508 -9.375740306858193 0 0 0
1528 1 6.975695759719356 0.28649695182920887 -9.893957747919938 0 0 0
1359 1 6.389233684992783 -1.8538171855694916 -8.745820353583902 0 0 0
1362 1 6.492925729491672 0.9564552323795699 -12.618605037002641 0 0 0
1228 1 7.173885209191875 -1.867284008665015 -13.357257981600574 0 0 0
1512 1 5.098417195175314 1.5152544745143839 -10.661283074796655 0 0 0
1378 1 8.416494212826839 -0.388214106105071 -11.78482778168322 0 0 0
1496 1 3.765191000439101 2.2454712879306786 -8.648500137444403 0 0 0
1662 1 8.49800595025585 1.5683149457242873 -8.486817710526074 0 0 0
1344 1 3.3919758943586107 -2.512031584160388 -8.408082195624496 0 0 0
1364 1 4.528123063719599 2.191158595148968 -13.214569009403572 0 0 0
1239 1 9.07630388324831 -3.015996133154065 -12.59001755289673 0 0 0
1032 1 13.324605697855274 -0.8807690627653066 -11.391642740058668 -1 0 0
1377 1 10.347370847212849 -1.5470759309571722 -11.068404218696124 0 0 0
1391 1 12.289382952456732 -3.0332601102124492 -10.220236839936746 0 0 0
1393 1 11.281605753940129 0.4692363340901622 -12.163080833365587 0 0 0
1544 1 11.61143933186599 -0.23232341031525117 -9.484371391813074 0 0 0
1527 1 8.98031696477006 -0.9532832823318298 -9.091214265997062 0 0 0
1399 1 11.843360709709904 -2.168038020250643 -12.955708851092641 0 0 0
1529 1 9.825571891964925 1.0651319206887102 -10.427325088857467 0 0 0
1034 1 12.59351025999157 1.8031286716128978 -10.574928218610792 -1 0 0
1379 1 9.244018253147361 1.6988959836428936 -13.035462476188851 0 0 0
1542 1 10.92391367864707 -2.2988721569062296 -8.334837934098115 0 0 0
1680 1 11.315542440769677 2.32962054925356 -8.719009230803035 0 0 0
1392 1 9.878112848696018 -0.9686483533238235 -13.724245149176623 0 0 0
1285 1 -8.446038362570404 2.46894326589255 -8.726304098393626 0 0 0
1140 1 -11.73457066314436 2.595779313537145 -10.930676812838408 0 0 0
1142 1 -11.161780206243034 4.533811858929939 -12.06622911543185 0 0 0
1287 1 -9.153999858841578 3.2764927427843684 -11.25620080800217 0 0 0
1271 1 -12.437757747312757 5.072795984431616 -10.161131999383032 0 0 0
1272 1 -9.750566888062004 5.846712487272219 -10.579946717996062 0 0 0
1143 1 -13.10528819322116 5.964579106285521 -12.917277350462467 0 0 0
1270 1 -10.537379418970085 3.873260325414426 -9.370820645198027 0 0 0
1126 1 -13.383009971625565 3.1267231821294335 -9.213046985815001 0 0 0
1144 1 -10.30217127718219 6.50611571156128 -13.29946978432975 0 0 0
1273 1 -11.599577997496082 7.15725557233471 -11.312907768086525 0 0 0
1436 1 -8.39675958077401 7.123859315492284 -8.96723832669419 0 0 0
1421 1 -10.928734585833977 6.45381243632392 -8.629404090585956 0 0 0
1158 1 -8.420004363566456 5.189400706660615 -12.453741235672766 0 0 0
485 1 -12.520719998054727 3.4277840765179928 -13.735252646561552 0 0 1
1258 1 -12.994878513862922 7.720729366191838 -9.466090256580445 0 0 0
1172 1 -7.848417392550865 2.6105317986132857 -13.253061572532978 0 0 0
1286 1 -7.864104778869593 4.652051705881034 -9.72588891538069 0 0 0
1171 1 -4.460675428276858 2.688283082168498 -11.025669175816583 0 0 0
1300 1 -5.8413246571168935 3.251733671155881 -9.103602915289624 0 0 0
1301 1 -6.463249912850146 3.951860274102417 -11.749985425943208 0 0 0
1316 1 -3.0911371476454175 3.9722088787071304 -9.571941269888345 0 0 0
1288 1 -6.924032050718288 6.580455240378809 -10.918893227493616 0 0 0
1302 1 -4.981695037041023 5.260617187661071 -10.254459453780454 0 0 0
1303 1 -5.6355268416826805 6.000605731750602 -12.904934033057646 0 0 0
1317 1 -3.6208202101336795 4.619523227797449 -12.31757151904133 0 0 0
1469 1 -4.271144800794335 7.294195927400688 -11.491079436751601 0 0 0
1319 1 -2.8917000910242354 6.754534895222564 -13.29814835462647 0 0 0
1452 1 -3.6926437142177537 6.587951075357376 -8.750521180598033 0 0 0
1173 1 -5.064604781284242 3.2218652690260132 -13.687568542791183 0 0 0
1290 1 -7.691729522053683 7.286289913365406 -13.598143468606013 0 0 0
1467 1 -2.3012731067520793 6.00003884580269 -10.704194870963484 0 0 0
1187 1 -1.7007922539680802 3.3081625121251417 -11.547612316190413 0 0 0
1318 1 -0.9130882588203466 5.532161769297142 -12.768091594657013 0 0 0
1334 1 1.148433550117355 4.116386275481036 -12.021743974790084 0 0 0
1483 1 -0.27612619369191904 4.827540208086441 -9.958472313924451 0 0 0
1485 1 0.5098972798423507 6.729994105546707 -11.247661533918457 0 0 0
1499 1 2.4157272858709096 5.470920540994866 -10.442796371231598 0 0 0
1501 1 1.884026832775442 6.248760372618973 -13.244599038641534 0 0 0
1468 1 -0.9419280068346296 7.295749578097267 -9.229858476194234 0 0 0
1497 1 1.6271067958918728 3.4081247264747443 -9.38059122564505 0 0 0
1481 1 -1.1532661544471061 2.7314128673225593 -8.716730117520717 0 0 0
1482 1 1.1118905343090422 6.139792470095619 -8.519801017357388 0 0 0
1333 1 -0.2932935454837722 2.7375022569343717 -13.541360272991398 0 0 0
1347 1 3.1862332862564653 2.8226030519062686 -11.348479834379297 0 0 0
1320 1 -0.15923703624439867 7.554788415349202 -13.840263936056882 0 0 0
1363 1 7.820336159731985 2.3298386449591764 -11.060309902634126 0 0 0
1349 1 3.8484329077346136 5.0401130821558535 -12.368906989450013 0 0 0
1365 1 6.68412443877286 5.68880002568987 -12.814617578882249 0 0 0
1514 1 5.890300732373634 3.6563219556660673 -11.760058196367133 0 0 0
1498 1 4.4239808138318875 4.287854970159076 -9.821831464725221 0 0 0
1648 1 7.214996403091165 5.001887135619777 -10.208691160343507 0 0 0
1513 1 6.4019417451974245 2.9649388293536934 -9.097486416651655 0 0 0
1500 1 5.362174208952718 6.379059436669857 -10.968061108385786 0 0 0
1515 1 8.013094795947909 7.010562501379633 -11.347841541427734 0 0 0
1634 1 4.0285994347573375 6.8587610954243505 -9.02355000334569 0 0 0
1649 1 8.553742806869982 6.396124887423005 -8.66303648390197 0 0 0
748 1 4.890686333066645 7.040313734727567 -13.565636820598819 0 0 1
1650 1 6.6888126606206395 7.747947457897569 -9.403853146465554 0 0 0
1484 1 3.277885200511845 7.6634802861844005 -11.663716995194024 0 0 0
1380 1 7.268913755896984 3.0133582273262736 -13.689264554314251 0 0 0
1530 1 8.554154979948065 4.433332044258728 -11.986788563774475 0 0 0
1633 1 5.960111666910999 5.6770404208019425 -8.19319393293981 0 0 0
893 1 12.009729821273451 2.5307293431788036 -13.36758540098343 0 0 1
1127 1 13.325656880183876 3.8818989850901797 -11.72731886505293 -1 0 0
1545 1 10.650239324585913 3.0918408698736055 -11.292662062143062 0 0 0
1681 1 11.902121807940448 4.513574024754947 -9.796304949054072 0 0 0
1531 1 9.907588432676247 5.644703088745301 -10.483984053981409 0 0 0
1547 1 11.42782504026606 5.166489539116144 -12.466853800840214 0 0 0
1664 1 9.32412090230322 3.6008173106074732 -9.306734627332126 0 0 0
1682 1 12.684866339331377 6.535960015770415 -10.922077710943125 0 0 0
1532 1 9.54945366641825 6.321378141263393 -13.245086434662795 0 0 0
1667 1 11.352625999047943 7.073311190626603 -8.939691874353457 0 0 0
1533 1 12.103888589159935 7.262451549215035 -13.723221305221582 0 0 0
897 1 10.751137305094742 7.71138186642194 -11.654757903952097 0 0 1
1778 1 13.360876881723113 5.782674633250556 -8.356885776515544 0 0 0
1289 1 -8.943356602069036 7.82882933576318 -11.661343811717835 0 0 0
1259 1 -11.554671271216431 11.741192804765118 -11.68107927651884 0 0 0
1274 1 -10.835439976480147 9.265599531825606 -12.50337570367821 0 0 0
1408 1 -12.165078326647834 9.822086435495143 -10.533417837882162 0 0 0
1423 1 -10.214130301797885 8.622295671603885 -9.779490534562324 0 0 0
1424 1 -9.374851674614508 10.618673222536367 -10.815043419083723 0 0 0
1275 1 -12.942803647557573 10.649188882406696 -13.340603748295734 0 0 0
1425 1 -8.782269462998105 12.716235767331115 -12.023584633270463 0 0 0
1410 1 -12.844825463034432 12.511398025199837 -9.730024948012224 0 0 0
1407 1 -10.904990521578021 11.187663266742204 -8.82068824398053 0 0 0
1276 1 -10.141575910637998 11.322449548092552 -13.570827536711015 0 0 0
1581 1 -8.023621795177121 11.981649326651533 -9.256121515847777 0 0 0
1570 1 -10.236262956459628 13.227865026926969 -10.074899636941016 0 0 0
1440 1 -8.115940378117 10.127481551481887 -12.685602742382189 0 0 0
1781 1 -13.495910666950452 13.178771910938357 -12.541094619198766 1 0 0
1683 1 13.550292080781718 8.414593566665316 -12.178485917363172 0 0 0
1437 1 -5.645534102871067 7.847057905788345 -9.433552928979665 0 0 0
1453 1 -6.2523848399592765 8.631054279448678 -12.228994381568407 0 0 0
1438 1 -7.5398952178585805 9.205263807094687 -10.165036956747011 0 0 0
1606 1 -2.8497062171570136 8.648697747142437 -9.896974173505493 0 0 0
1455 1 -3.441359619225681 9.437588515148024 -12.44055087639284 0 0 0
1572 1 -5.353971349446336 12.646614230645008 -9.733380236579599 0 0 0
1439 1 -6.81735096569876 11.31285539762146 -11.211354918871955 0 0 0
1594 1 -4.103421882984218 12.052956210939039 -11.682521165438656 0 0 0
1454 1 -4.920557199808833 9.831649980947772 -10.629712741787205 0 0 0
1426 1 -5.351750171188096 10.642257777779767 -13.160917516322284 0 0 0
1592 1 -3.360811428612827 11.422281123614288 -9.1398731993224 0 0 0
1471 1 -2.705753711171841 11.44756403641537 -13.646527354169972 0 0 0
1579 1 -6.163471874821978 10.377578307423482 -8.57335419214776 0 0 0
1441 1 -6.007057281926451 13.385192263155824 -12.347058283022797 0 0 0
1722 1 -2.625889532031284 13.493924206179402 -10.2562001882504 0 0 0
1304 1 -4.807507692371695 8.00394336353377 13.698049966514697 0 0 -1
1470 1 -1.4805060408256114 8.118023675629692 -11.835384746244703 0 0 0
1619 1 1.8556063261369893 8.163397371106408 -9.692191905751683 0 0 0
1486 1 1.3056977937405918 8.795449530120015 -12.311791154734964 0 0 0
1608 1 -2.1489224133448523 10.837732892445173 -11.041187518944197 0 0 0
1623 1 -0.5835124304982511 10.072151154252849 -13.057205100698797 0 0 0
1593 1 -0.6916324549090458 12.199317476137354 -9.613366194712945 0 0 0
1621 1 -0.1440714571884083 9.423805767069355 -10.302931091532134 0 0 0
1622 1 0.6718719846803367 11.500747384058412 -11.517957044499965 0 0 0
1488 1 2.233848765163895 10.94534734076027 -13.415703087721601 0 0 0
1610 1 -1.1925203454228317 12.68910491334247 -12.186908172100706 0 0 0
1609 1 2.1249483969389065 13.016040104551303 -10.07146105899769 0 0 0
1731 1 1.2796367351292979 10.87372942837663 -8.871295708758224 0 0 0
1742 1 2.7033809400382527 10.325379351614908 -10.931257958178888 0 0 0
1625 1 1.5012405270568063 13.623099615822076 -12.661355558958583 0 0 0
1591 1 -1.39346731649289 10.025256820173341 -8.367935326456308 0 0 0
1638 1 3.569669639922795 12.35832263506209 -11.89865235240821 0 0 0
1516 1 6.20088001788187 8.379627405037828 -12.00707314183648 0 0 0
1502 1 4.2110795237990875 9.675216485274548 -12.815440625805554 0 0 0
1636 1 4.593995277978996 8.91950994147337 -10.119019091307244 0 0 0
1637 1 5.503943002393209 11.051600295059012 -11.214563400736452 0 0 0
1651 1 7.480150663803867 9.76333493765736 -10.529286509635199 0 0 0
1754 1 6.2025470108128165 10.280444085336539 -8.666308118510281 0 0 0
1639 1 4.1324559325556915 11.628171769009827 -9.343513336829606 0 0 0
1652 1 6.915094525653002 10.471276544727813 -13.353760790751409 0 0 0
1756 1 7.066350700232443 12.350279933304803 -9.805900474726528 0 0 0
791 1 6.294042351748606 13.183917884785599 -12.38650054294709 0 0 1
1653 1 8.329715844656976 11.659265984318973 -11.762169715353394 0 0 0
1560 1 -13.588440042368513 10.429397635309739 -8.591812309201597 0 0 0
1755 1 9.017134816290751 10.898549224646919 -8.940887535280986 0 0 0
1668 1 8.86272254460682 9.153448509287541 -12.535303492383388 0 0 0
1780 1 13.02190469439419 11.092956936540658 -11.335969860054757 0 0 0
1666 1 9.429335462824826 8.494656389298322 -9.680319006072018 0 0 0
1779 1 12.276714336423256 9.06195801587045 -10.175013111791653 0 0 0
1840 1 11.707150056113408 11.675961533225204 -9.494747632805428 0 0 0
1684 1 11.65203173787891 9.849588534858897 -12.93849770195194 0 0 0
1771 1 10.249340529631604 10.334960421168669 -10.830950879497118 0 0 0
1669 1 11.09559837810116 12.55378215582248 -12.174735609815572 0 0 0
1834 1 9.670852311856114 12.957700422666518 -10.166669311286036 0 0 0
803 1 9.797471747487348 11.092294459127734 -13.777445836728873 0 0 1
1427 1 -10.566997868846457 13.957431000160513 -12.858687876351166 0 0 0
1583 1 -7.339806945945172 13.973552660501399 -10.482971400931959 0 0 0
1596 1 -3.108441820144961 14.092049652794833 -12.807141638095402 0 0 0
1004 1 0.08872659849109255 14.168973233529828 -10.661506381191032 0 -1 0
1758 1 7.741284697415777 -14.460171065298477 -11.005858912195912 0 1 0
770 1 4.213631747310766 14.423125327906009 -13.0245331193375 0 0 1
1745 1 4.990710571425636 13.718978860200645 -10.421204893612536 0 0 0
1733 1 3.4090313545872863 14.26795462446382 -8.48367534604533 0 0 0
1773 1 9.145823259834858 13.790632904311954 -12.908829987130868 0 0 0
1772 1 12.359447666530306 13.920436520663033 -10.530227125501245 0 0 0
943 1 -9.345207515697105 -11.727689121726153 -7.590827329565775 0 0 0
939 1 -12.058285474803217 -12.471054365830362 -7.255318209995452 0 0 0
972 1 -10.627203299107997 -11.187669116305422 -5.648608530605065 0 0 0
1038 1 -9.472385014005553 -9.862105641168704 -3.940989986453795 0 0 0
1049 1 -8.770443665093904 -12.61843723743408 -4.854524458291802 0 0 0
1024 1 -12.067477132403026 -10.44297719201482 -3.6027440776362862 0 0 0
963 1 -11.53974698211586 -13.224354480939478 -4.539650639912912 0 0 0
965 1 -12.622960749528028 -9.871959192833387 -6.473506872601711 0 0 0
973 1 -10.146727597133653 -13.886954249969072 -6.500296968910736 0 0 0
1023 1 -10.280776280674381 -12.014528573408755 -2.7796558032636867 0 0 0
974 1 -9.910663720464914 -9.084945735654873 -6.658253426061596 0 0 0
1395 1 -13.363621508113853 -11.932741648874478 -5.219120998953864 1 0 0
981 1 -8.027415689709002 -10.497340059460637 -6.046003459569225 0 0 0
982 1 -6.744664154820749 -11.004876591365733 -8.112562386855776 0 0 0
1704 1 -7.405274846118641 -13.200434944577434 -6.8847413339992505 0 1 0
991 1 -4.656690997131914 -12.24253332436312 -7.30967521156224 0 0 0
1050 1 -6.009593880379047 -11.775565021062633 -5.406070951865054 0 0 0
1064 1 -3.1946016584682617 -10.83681268120991 -5.696228458580663 0 0 0
1052 1 -5.2363012418007155 -9.530433363009442 -6.487479572553689 0 0 0
1074 1 -4.1802781472872645 -12.935052965789989 -4.565562160205928 0 0 0
1160 1 -4.596419839094786 -10.425700487945836 -3.6967775724650735 0 0 0
1037 1 -7.431093232839528 -11.18466153643279 -3.3841420239985993 0 0 0
1789 1 -6.921698152124027 -13.740253419279501 -4.1270525452283096 0 1 0
990 1 -2.734404959788023 -13.539272388914702 -6.588842063823121 0 0 0
1176 1 -2.750952844958457 -11.53351459870475 -3.13522801468849 0 0 0
1062 1 -5.442957073467129 -14.358978499542834 -6.151158490669954 0 0 0
1051 1 -6.591076241316063 -9.257164817451244 -4.368745364198654 0 0 0
1076 1 0.9434301103299205 -10.77831461400166 -8.273383879238693 0 0 0
992 1 -1.9749869819332435 -11.455905834851508 -7.708690053321258 0 0 0
1178 1 -1.8239433168476715 -9.371772248026677 -4.160854575361219 0 0 0
1065 1 -1.2778353889787137 -12.08382343558296 -5.068226684187353 0 0 0
1075 1 0.8109883728351779 -13.256200764275563 -4.411552206544787 0 0 0
1086 1 1.5943207355896618 -11.3969371662321 -5.715114138409641 0 0 0
1195 1 -0.4327317996500888 -10.141861335308066 -6.156074236107935 0 0 0
1094 1 2.1366734912601615 -13.914438701367853 -6.505944414065483 0 0 0
1193 1 0.2875927530482745 -10.52330418446951 -3.712233207333295 0 0 0
997 1 0.09870983380512754 -12.676285945704798 -7.123446366628038 0 0 0
1192 1 2.237717614621218 -11.860675182800085 -3.0155806914369734 0 0 0
1208 1 2.348777524572366 -9.249822356525236 -6.818554792494035 0 0 0
1207 1 2.8688779446458934 -9.816409828052064 -4.155080773818625 0 0 0
1085 1 3.0148141923844864 -11.89671697457019 -7.732710614065873 0 0 0
1063 1 -2.101206117383409 -14.103992365806553 -4.063572629612882 0 0 0