LAMMPS data file via write_data, version 2 Aug 2023, timestep = 0, units = metal

1873 atoms
3 atom types

-13.803195434191254 13.803195434191254 xlo xhi
-14.222033921433802 14.222033921433802 ylo yhi
-13.991982524342847 13.991982524342847 zlo zhi

Masses

1 55.847
2 1.008
3 1.008

Atoms # atomic

58 1 -12.617157806326299 -13.687383011669434 -13.230101565956321 0 0 0
56 1 -10.522281021161195 -12.655059082721392 -11.441202777900415 0 0 0
94 1 -12.86144698289743 -13.08514579548506 -10.803985351479769 0 0 0
97 1 -7.990913348450668 -12.491396224977738 -12.25187012719112 0 0 0
698 1 -10.157187882001649 -13.471946704764669 -13.812614752786887 0 1 0
98 1 -5.780019359378672 -12.100225974920614 -12.933740070009542 0 0 0
92 1 -4.300019311810029 -13.442758867724795 -11.453881239914391 0 0 0
57 1 -6.683712944311857 -13.768286350172154 -10.791811410264902 0 0 0
90 1 -6.068119150741982 -11.229263138049369 -10.574909835487203 0 0 0
692 1 -3.367191625222814 -14.11501461184706 -7.472499877542083 0 1 0
435 1 -3.419764855661869 -11.78185601531999 -13.704449699454468 0 0 1
9 1 -1.89674485790594 -13.142631517877254 -12.2088972366951 0 0 0
1071 1 -11.957228275988303 -11.287797322655717 -12.989620960908482 1 0 0
325 1 -10.38599216986755 -0.3740958568200483 -13.795876429427064 0 0 1
138 1 -11.244767552692204 -8.928992415948432 -12.857512701579841 0 0 0
86 1 -12.144111871619048 -10.633290692789707 -10.633511626430188 0 0 0
89 1 -7.4117213845437435 -10.034394406833703 -12.118712304149868 0 0 0
87 1 -9.923646374970208 -10.370217372819965 -11.287654026862752 0 0 0
283 1 -8.875893574072316 -8.836695407748582 -13.610128256239147 0 0 1
95 1 -9.549983546248601 -11.14771934548796 -13.734468270960528 0 0 0
140 1 -5.157324850458599 -9.725833218682531 -12.89880690318907 0 0 0
91 1 -3.672184339294441 -11.09158735499885 -11.380553325605234 0 0 0
141 1 -2.7733930457671168 -9.358595048682977 -13.501646216086428 0 0 0
93 1 -1.3410793654869728 -10.639924818257334 -11.880815073891002 0 0 0
183 1 -10.508414003851568 -6.609651800053398 -12.806385128277734 0 0 0
174 1 -12.855182409537626 -6.885576826966995 -12.026091626176969 0 0 0
130 1 -11.481808092957003 -8.26462503517987 -10.521103414592696 0 0 0
176 1 -8.242835962958216 -6.257792237654272 -13.528633361102834 0 0 0
131 1 -9.217593947482833 -8.06235317360218 -11.304848912829884 0 0 0
133 1 -6.919006702310809 -7.616079128955325 -11.964359732027047 0 0 0
185 1 -4.47226748989663 -7.317745563207591 -12.615788713648394 0 0 0
31 1 -7.411936172315843 -0.05522233381698172 -8.447180491805799 0 0 0
135 1 -3.2151541613878827 -8.671459154854892 -10.939278968302935 0 0 0
137 1 -0.8755297929658248 -8.282194268441971 -11.784710551302481 0 0 0
186 1 -2.077260144536961 -6.966935323873125 -13.248712599180978 0 0 0
181 1 -2.504880662046924 -6.242448215200455 -10.835664737145501 0 0 0
228 1 -12.313547402637267 -4.434628625313559 -11.94339727482561 0 0 0
199 1 -4.830960977821325 -2.1516330570529387 -3.0903363652046707 0 0 0
365 1 -2.626089915889345 -14.197409715253903 -1.3733636345143534 0 0 0
175 1 -8.571235008664615 -5.599922847480677 -11.094600241508369 0 0 0
229 1 -9.940437659124793 -4.237178889102495 -12.565770656422535 0 0 0
230 1 -7.525473051806669 -3.9212130536491596 -13.201697426492418 0 0 0
224 1 -7.813955724663194 -3.1557200399013183 -10.904611353331925 0 0 0
178 1 -6.1018598747271175 -5.214176815863569 -11.759826532644283 0 0 0
180 1 -3.7817801673203135 -4.8921074648522715 -12.286694707712769 0 0 0
231 1 -1.3851325321950156 -4.525390210696635 -13.138283320179628 0 0 0
226 1 -1.752887312997112 -3.939720295338642 -10.751044529454488 0 0 0
37 1 -12.813007542124662 -0.6796218257382431 -13.234610530168869 0 0 0
221 1 -11.494187732555675 -2.0666107650791687 -11.78655283263523 0 0 0
2 1 -1.590324204582343 -0.01177413117935977 -5.908425239654772 0 0 0
191 1 -2.8280543967357907 -1.1261244312314354 -1.4894851947656065 0 0 0
223 1 -9.090621261428272 -1.721089217995333 -12.281283897595312 0 0 0
35 1 -7.043642800383981 -0.6416357938019388 -10.747894456795022 0 0 0
225 1 -5.388004499013537 -2.8473082895489643 -11.510944302387838 0 0 0
39 1 -6.700120178123882 -1.5090849671935693 -13.001976957419206 0 0 0
36 1 -4.776828971247047 -0.3523862704491503 -11.436841681963942 0 0 0
236 1 -4.332233645979679 -0.9685636441109882 -13.788747237194134 0 0 1
1 1 -0.5405080405479357 -0.9860490967667754 -2.0748041209274444 0 0 0
227 1 -3.036990594070973 -2.433684073713298 -12.258392811366095 0 0 0
1157 1 -0.5397356902180395 -2.2016610899579963 -12.933277021182104 0 0 0
4 1 -0.9791968547517076 -1.4571265098795259 -10.658913694491245 0 0 0
51 1 -10.833330044606015 -12.103379525856399 -9.116211574891501 0 0 0
1007 1 -13.279427997422237 -12.374910121773535 -8.431802990461007 1 0 0
88 1 -8.394708062904808 -11.804879915451012 -9.838703625154679 0 0 0
52 1 -9.411374665758043 -13.486955422138355 -7.616043506905591 0 0 0
53 1 -7.021070044551172 -13.16095724781429 -8.341136989543212 0 0 0
484 1 -12.441504229800678 -0.0954341436579913 -4.74434069496235 0 0 0
54 1 -4.544934939698225 -12.788337772714044 -9.055332205022303 0 0 0
498 1 -2.3718796248913137 -0.015144075863993578 -12.12218833501874 0 0 0
8 1 -2.2976930462489324 -12.500109179473899 -9.714181456056654 0 0 0
693 1 -1.047226229236859 -13.746725902779222 -8.251072184091864 0 1 0
84 1 -2.6856027551708106 -11.689037561966627 -7.372399056222358 0 0 0
85 1 -0.2332241135388493 -11.376762413380211 -8.075786913601107 0 0 0
1056 1 -12.597134810452147 -10.02641303618815 -8.361211763806468 1 0 0
79 1 -10.257301053230702 -9.656887893154305 -9.087059141875734 0 0 0
132 1 -7.916476969111527 -9.346615761387024 -9.742324310359717 0 0 0
81 1 -9.025032519736765 -11.115468900756273 -7.517850038595055 0 0 0
125 1 -8.14089135590675 -8.836109238962297 -7.466142901142169 0 0 0
134 1 -5.555782012968098 -8.953553180046972 -10.262641062633072 0 0 0
136 1 -4.054925029032679 -10.406549824670853 -8.855140668155107 0 0 0
83 1 -6.59781478223712 -10.703383524533306 -8.28152200022419 0 0 0
13 1 -1.8125993452640081 -10.083160167641498 -9.554335222446781 0 0 0
128 1 -2.1336518493935763 -9.343103712267224 -7.19503110330084 0 0 0
121 1 -10.847286989964587 -5.777955861130414 -10.457573224265627 0 0 0
953 1 -13.277106563351563 -6.134089739485159 -9.733312668071047 1 0 0
1106 1 -11.79617045034323 -7.516630999419229 -8.23299021994472 1 0 0
123 1 -9.41350849960666 -7.295485429435937 -8.957315235403573 0 0 0
177 1 -7.2320109209308185 -6.9161967631561305 -9.577992514209267 0 0 0
170 1 -7.551621037469043 -6.218433440536762 -7.15025778833446 0 0 0
179 1 -4.808482373515478 -6.6631960416462075 -10.180380368707182 0 0 0
127 1 -5.8259853581693335 -8.301157530106714 -7.9292147905223 0 0 0
172 1 -5.221800519482807 -5.871111788800688 -7.935008822864626 0 0 0
129 1 -3.337272708797416 -8.063619247069685 -8.655621812752354 0 0 0
18 1 -1.0477577601603834 -7.668673179364235 -9.349160217910018 0 0 0
17 1 -1.2608578145315814 -6.901602446840349 -6.98481924411488 0 0 0
1095 1 -13.526487986732796 -5.483263412607167 -7.391730526709508 1 0 0
220 1 -12.496757638064903 -3.7580388267285283 -9.623044040723748 0 0 0
165 1 -11.21098523074851 -5.225853097584116 -8.067600104139931 0 0 0
211 1 -12.953292920458802 -3.19567229075278 -7.335320481288937 0 0 0
222 1 -10.242757436311205 -3.5090889968366294 -10.372707046732714 0 0 0
167 1 -8.874291429217617 -4.895983208508065 -8.84115538857321 0 0 0
169 1 -6.544229240193419 -4.652541547590335 -9.407750201502578 0 0 0
171 1 -4.0671394703419566 -4.216472546637133 -9.8468955127043 0 0 0
217 1 -4.443734611326166 -3.429067522328312 -7.710607023751387 0 0 0
215 1 -6.829128368227144 -3.774719401149527 -7.025246866280585 0 0 0
173 1 -2.729432388733027 -5.634166208538291 -8.437750548879588 0 0 0
1097 1 -0.3339767591891931 -5.249324082638045 -9.323959030440646 0 0 0
22 1 -1.9842828399726553 -3.257951682068734 -8.429772205675313 0 0 0
212 1 -11.748599879066234 -1.385018399934534 -9.416049196522236 0 0 0
203 1 -12.036975224912005 -0.7924377275848649 -7.169077689511479 0 0 0
213 1 -10.529917339864639 -2.8588711412836627 -7.978734425293949 0 0 0
34 1 -9.419804564812772 -1.094184669886399 -10.129325859640282 0 0 0
214 1 -8.121849829896549 -2.5895495338966725 -8.664541757584246 0 0 0
30 1 -9.789076389781723 -0.5607275762074337 -7.872371700601255 0 0 0
494 1 -13.189063215606046 -0.11858914885087302 -10.888679046796902 0 0 0
216 1 -5.832394290979505 -2.0338557607928323 -9.260374008532455 0 0 0
32 1 -3.671641712046302 -1.0892085724333533 -7.52314465993506 0 0 0
218 1 -3.4150850311172167 -1.7523504596548136 -9.896976969851895 0 0 0
3 1 -1.344485706065278 -0.7495564718754562 -8.43688941933367 0 0 0
47 1 -11.790042327402617 -13.83504416128284 -6.965979647268642 0 0 0
987 1 -12.22522444696131 -13.014899241505864 -4.670046718940338 1 0 0
78 1 -13.695213304937774 -11.708992993399008 -6.183638538909423 0 0 0
42 1 -8.55210424561253 -14.130849981055396 -3.740436709062239 0 0 0
48 1 -7.379637593857974 -12.460295059460147 -6.0726967773016325 0 0 0
70 1 -9.865504407119102 -12.785141439250975 -5.232364360765873 0 0 0
72 1 -7.782405842325982 -11.847917003732508 -3.6459869963788165 0 0 0
82 1 -5.022687224261814 -12.117920711786846 -6.721638659210559 0 0 0
44 1 -5.993297791444753 -13.765904490435835 -4.603207762065393 0 0 0
49 1 -3.660747485561048 -13.460381599073429 -5.252379980534791 0 0 0
74 1 -5.382685610275084 -11.402148603353098 -4.2691537971395555 0 0 0
76 1 -1.3023464261729405 -13.109841805839238 -5.859910035634334 0 0 0
46 1 -1.6543686092352932 -12.428563075374536 -3.6194336206589295 0 0 0
80 1 -11.260634738705082 -11.378908503151909 -6.788150194834872 0 0 0
122 1 -12.79962368293781 -9.337279072808666 -5.931711792337946 0 0 0
60 1 -11.5265341982199 -10.7159582090631 -4.379718032064195 0 0 0
113 1 -13.310788185619073 -8.600135365510472 -3.5813404771742032 0 0 0
124 1 -10.465628557780772 -9.062022209453605 -6.766665654548743 0 0 0
71 1 -9.118846902900412 -10.428384984752308 -5.183814674094373 0 0 0
115 1 -7.074812437357198 -9.410220267674585 -3.436530578313823 0 0 0
73 1 -6.854504943025994 -10.10928315774467 -5.808519767176319 0 0 0
126 1 -4.618345740047872 -9.66151552252817 -6.544585724557695 0 0 0
117 1 -4.706268004799519 -8.976523563780267 -4.134891553619935 0 0 0
77 1 -0.7219487770685333 -10.748008111883891 -5.731254042447805 0 0 0
75 1 -3.0973307276623814 -11.09870058905737 -5.007553027098206 0 0 0
119 1 -2.3906120597910743 -8.673470416300285 -4.824860621908266 0 0 0
166 1 -12.279343505384114 -6.929195111873365 -5.850312315392003 0 0 0
114 1 -10.92063283198705 -8.404398919122595 -4.301681881226838 0 0 0
157 1 -12.48374960187325 -6.265851947927929 -3.4599327211686184 0 0 0
168 1 -9.93238855397709 -6.587410994656101 -6.638554625211353 0 0 0
116 1 -8.651393644379148 -7.94000139121172 -4.962277590212679 0 0 0
159 1 -10.149604102171743 -5.915635496235533 -4.3408882353055205 0 0 0
118 1 -6.201906790061875 -7.812568785186482 -5.643369622094594 0 0 0
120 1 -3.740878947723738 -7.327428005058588 -6.3713171019569526 0 0 0
163 1 -4.031213154535084 -6.65079594878324 -4.069858442813635 0 0 0
16 1 -1.624946135940986 -6.303653215917497 -4.788450239097724 0 0 0
190 1 -5.141590036582606 -1.447238838428543 -0.7903038055980236 0 0 0
158 1 -11.475342625361646 -4.499164725840608 -5.695526075674653 0 0 0
161 1 -7.75269840087243 -5.512087806958016 -4.852278463094967 0 0 0
160 1 -9.11237045891485 -4.216050850798508 -6.352646610176998 0 0 0
151 1 -9.495896621745125 -3.5398419905384806 -4.086126810036587 0 0 0
206 1 -7.04701175944449 -3.2089853798073857 -4.738586198932309 0 0 0
162 1 -5.4481870484729775 -5.308679646426475 -5.5104626671818036 0 0 0
1087 1 -0.6916829265657629 -4.591764492265632 -6.980663998632295 0 0 0
164 1 -3.0741593721009846 -4.856528191523392 -6.186916999457782 0 0 0
155 1 -3.2242778026298 -4.294699996064674 -3.867273600760079 0 0 0
21 1 -1.0415797400901123 -3.8367790855117754 -4.677053355396467 0 0 0
204 1 -10.751203299334955 -2.131080951865531 -5.595805566662904 0 0 0
202 1 -13.059674703595576 -2.534786278824553 -4.968448768522716 0 0 0
962 1 -13.608106321973224 -3.080595018412353 -13.441035117918739 1 0 0
205 1 -8.538373931560795 -1.7994713550285777 -6.248287716463719 0 0 0
196 1 -8.774578738679818 -1.1522782414185233 -3.9065257805888116 0 0 0
207 1 -5.939087155045508 -1.4864078968936454 -6.870177243857009 0 0 0
208 1 -4.689135233859689 -2.983595666863975 -5.337425076705475 0 0 0
198 1 -6.332322051973908 -0.8293068347888006 -4.599671797100642 0 0 0
28 1 -3.9810723632153255 -0.42353876453502615 -5.219323952005718 0 0 0
1127 1 -0.2958772954865925 -1.5266153691892388 -4.471689939346852 0 0 0
209 1 -2.246812581295144 -2.448959619868127 -6.162324702110438 0 0 0
200 1 -2.497670220448194 -1.9726648458971763 -3.6833685196388526 0 0 0
102 1 -3.1024770144228775 -7.457849905611126 -0.3196279979555676 0 0 0
1036 1 -12.47766047662199 -12.345746378292668 -2.2764848824536745 1 0 0
1381 1 -11.107611268301165 -13.826209484304067 -0.6750426211898493 1 0 0
40 1 -10.131027193082609 -12.064399770837687 -2.8534645600315205 0 0 0
41 1 -8.700360579473763 -13.514114249917364 -1.4240395373460188 0 0 0
65 1 -4.030120190289141 -12.693066926269225 -2.8078220939449867 0 0 0
63 1 -6.4964427726886305 -13.21968747388132 -2.1925580225000463 0 0 0
67 1 -4.475147335811718 -12.297765416272478 -0.5085439043693238 0 0 0
5 1 -1.9856875445371838 -11.798002881637109 -1.2159773706246675 0 0 0
968 1 -0.2407514089526792 -13.876790588290087 -2.039843125946385 0 0 0
480 1 -6.604162186669366 -0.11914737941846099 -2.2307270129705508 0 0 0
1086 1 -11.956470365384826 -9.913186175587116 -2.0866663341768525 1 0 0
329 1 -10.465590428106548 -11.474916145435362 -0.6095398888699997 0 0 0
61 1 -8.036430123699876 -11.050161355675236 -1.3186066985691092 0 0 0
62 1 -9.574201965560896 -9.720119932679665 -2.913561021231148 0 0 0
340 1 -9.780845379607321 -9.07652259633349 -0.42320306563022925 0 0 0
106 1 -7.40400402263562 -8.745475171921392 -1.13317639905544 0 0 0
64 1 -5.767724807519334 -10.767937444233148 -1.9840795924437007 0 0 0
59 1 -3.7499977503879265 -9.82483688062742 -0.2761206460692094 0 0 0
68 1 -0.9910386489340439 -10.138058656736515 -3.3949231407837583 0 0 0
66 1 -3.2980114071152844 -10.35549933381332 -2.6641827774370874 0 0 0
10 1 -1.3241105564900746 -9.479765687134316 -1.0580620698074714 0 0 0
104 1 -13.689807836291024 -7.867620478369738 -1.1785522093910288 0 0 0
105 1 -11.185171540048 -7.597101528327739 -1.7641262940536375 0 0 0
107 1 -8.857994229488957 -7.339328385035951 -2.777107629842506 0 0 0
100 1 -9.05951030309245 -6.57668963007112 -0.28198840083993915 0 0 0
108 1 -5.15788259604977 -8.273041125108705 -1.7960353203484214 0 0 0
109 1 -6.432316617460619 -6.970203560817191 -3.4413145556089866 0 0 0
101 1 -6.729687997026395 -6.24670031198075 -1.0530597962807615 0 0 0
154 1 -4.446256867058567 -5.9169146901033685 -1.5901325904379657 0 0 0
1116 1 -13.49497755614417 -9.236557730947588 -12.206209283263215 1 0 0
111 1 -0.286165521086847 -7.623528160764803 -3.2607875543307916 0 0 0
110 1 -2.7737006010037657 -7.964734406595992 -2.5615634263044242 0 0 0
1022 1 -0.7079216467785017 -7.10152028706971 -0.9664986814499255 0 0 0
149 1 -11.835670565089067 -3.9190679102989634 -3.4947455966228915 0 0 0
148 1 -12.806756997438248 -5.504464100282021 -1.1203659210139172 0 0 0
143 1 -11.944656588283506 -3.069368221216406 -1.2793755757957435 0 0 0
150 1 -10.515906920413714 -5.287853541260802 -1.9045009567742923 0 0 0
144 1 -8.441745688608695 -4.23099082603774 -0.15067513516722997 0 0 0
152 1 -8.130845039799492 -4.916200304738769 -2.432423414358608 0 0 0
153 1 -5.6286205782006125 -4.430498270854208 -3.2860269511377904 0 0 0
145 1 -5.768134797143029 -3.9237158064306072 -0.8311913882505788 0 0 0
146 1 -3.4586159037917756 -3.494037960764725 -1.4959824584653365 0 0 0
15 1 -2.024580471969781 -5.659990781131841 -2.3428289484320004 0 0 0
20 1 -1.1117567747606962 -3.325418630301673 -2.2728790573483355 0 0 0
472 1 -4.130064090754226 -14.055162476640358 -13.81267115792899 0 0 1
142 1 -13.553712864372804 -1.2061886574862921 -0.2816130122617686 0 0 0
194 1 -11.013241472250083 -1.498579774314111 -3.2403349625343285 0 0 0
188 1 -11.096839917395172 -0.8624095846796198 -0.9737162368037051 0 0 0
193 1 -13.323114623292694 -1.8489238113398283 -2.7572561799716695 0 0 0
195 1 -9.569892983986502 -2.8412197668215207 -1.8420407733352597 0 0 0
197 1 -7.2942057033556615 -2.555754132438379 -2.331983069254038 0 0 0
500 1 -8.85127912132739 -0.5139100232378055 -1.5352302790298715 0 0 0
274 1 -7.5370069423983175 -1.7809684676625714 -0.06837019786530085 0 0 0
237 1 -5.1014339013889884 -3.5475019427828656 -13.874981904845658 0 0 1
694 1 -9.129517745237354 -14.16883772646687 -10.064560038070354 0 1 0
1072 1 -2.1100949657141985 -4.976967859414737 -0.14417218465247927 0 0 0
432 1 -1.3445675673051536 -2.543862326907094 -0.05356228609623592 0 0 0
182 1 -0.03962405913939904 -5.96285748777621 -11.576515632225139 0 0 0
744 1 -11.547697051241812 -13.263174594631362 1.7155108603126 0 1 0
436 1 -0.3357682818674945 -8.943208897931667 13.84731088351961 0 0 0
335 1 -9.061136808601034 -12.688943913892954 0.969929769516968 0 0 0
331 1 -7.0599819944284885 -11.906630758180455 2.54436736659064 0 0 0
351 1 -9.584373317621731 -12.243425210505828 3.2338200022027603 0 0 0
730 1 -11.511288646194075 -0.14822665761763965 1.24945295061349 0 0 0
343 1 -5.488580398892111 -13.983649315457717 1.5786335011902395 0 0 0
371 1 -4.653376811911768 -11.533957841828084 1.8472079050314427 0 0 0
345 1 -6.8097621459446405 -12.543256716211165 0.14851685012339644 0 0 0
368 1 -3.437152586042126 -12.979673475828104 3.345991661041749 0 0 0
370 1 -2.976097191694212 -13.591164876937636 0.9172188376074573 0 0 0
405 1 -0.5003180232629223 -13.265278606505207 0.11577485476435712 0 0 0
650 1 -0.9557638070204533 -12.663520158985115 2.629904414341274 0 1 0
338 1 -13.304134755643638 -10.978717967322478 2.3997528074650223 0 0 0
336 1 -10.888794434642397 -10.767748771760496 1.788445234784426 0 0 0
339 1 -12.65236416197799 -8.678508790412364 2.729079992487099 0 0 0
1383 1 -12.293894746736486 -9.352244061975089 0.2760371791761109 1 0 0
353 1 -8.512361245249917 -10.411276182326038 1.161248902037178 0 0 0
352 1 -8.84751551594612 -9.792487495686537 3.5004615499900513 0 0 0
417 1 -4.087631189240778 -9.147542030191378 2.1648969815149837 0 0 0
382 1 -6.065566008399226 -10.246956677249308 0.332182998942514 0 0 0
380 1 -6.435004755319618 -9.439991490597079 2.678074152423614 0 0 0
1233 1 -2.3259686584217487 -11.24752139442469 1.0887505849057373 0 0 0
406 1 -1.712907520728736 -8.894564666603326 1.300440666849454 0 0 0
1235 1 -0.3761443446395365 -10.321161733468507 2.779682005596486 0 0 0
99 1 -11.557719347376661 -6.911742829090126 0.44045457710565294 0 0 0
271 1 -11.754276447087337 -6.375318335124374 2.753935078290505 0 0 0
362 1 -10.290355859062636 -8.374139002186414 1.91779515365082 0 0 0
363 1 -9.468059909610893 -5.940273538885577 1.9740225759321781 0 0 0
354 1 -7.857412008017697 -8.025395612622908 1.1721811664895032 0 0 0
394 1 -7.025128744208655 -5.686690536749216 1.3229309613606688 0 0 0
383 1 -5.418227768206052 -7.794522726134982 0.5550974202595711 0 0 0
381 1 -5.909784492335829 -7.0433230221877405 2.8499905443606597 0 0 0
429 1 -3.414811289159706 -6.828246761343315 2.2720855683340364 0 0 0
418 1 -1.1012088801808915 -6.40877418286966 1.5310430865689835 0 0 0
273 1 -10.844742680997776 -4.657573654650012 0.4539843728703623 0 0 0
278 1 -10.68830983916131 -3.7179403352358005 2.73757601183331 0 0 0
264 1 -13.292484210312006 -5.040305736348772 1.359193198449411 0 0 0
262 1 -12.805317806977254 -4.195084083421158 3.600273483788806 0 0 0
272 1 -8.38895865677651 -3.5266999163548185 2.044720342339298 0 0 0
431 1 -4.594544450953782 -5.260382510790103 0.7308775508316891 0 0 0
292 1 -6.174438544972486 -3.252218447817347 1.3991550544538143 0 0 0
393 1 -5.091669542651287 -4.879558205101873 3.2422508205989313 0 0 0
316 1 -3.680718459249519 -2.776680766752264 0.6820517218729343 0 0 0
430 1 -2.601963018444783 -4.414524893363094 2.2075373206714044 0 0 0
446 1 -0.17909096289714377 -3.9706500972185204 1.4382862973467887 0 0 0
265 1 -12.169522986786667 -2.697893851921709 1.193470301389258 0 0 0
184 1 -5.809018638046195 -5.938107102717268 13.959083355386054 0 0 -1
875 1 -4.719644890296237 -14.05672283538289 7.926382125549226 0 1 0
302 1 -7.672617205387149 -1.2023749925204115 2.181036224244595 0 0 0
280 1 -9.913540584426283 -2.288885798641255 0.5047803893209313 0 0 0
279 1 -9.945263598372062 -1.4253468556290336 2.879343075633658 0 0 0
395 1 -5.311840022212854 -1.033986584789135 1.5985511825539742 0 0 0
314 1 -4.115305966439108 -2.5101693031645222 3.1316847977616487 0 0 0
1401 1 -13.711237170851353 -0.3827290809252446 1.9993759560212343 1 0 0
798 1 -2.9583932076019543 -0.5595131911843687 0.9983325727768921 0 0 0
251 1 -1.6704763327478407 -2.084764069453742 2.3316033919607637 0 0 0
334 1 -12.113764005816606 -12.478473378644162 3.8924011054400385 0 0 0
358 1 -12.327971377668373 -12.021323284934963 6.334499468449293 0 0 0
796 1 -10.636771770519848 -13.924852321774834 5.416895994226872 0 1 0
349 1 -8.098122477537418 -13.565700437371204 4.940690945010898 0 0 0
350 1 -9.84373951321842 -11.664051206089049 5.578751153476562 0 0 0
342 1 -5.795748838912353 -13.314933558553962 4.070089027256662 0 0 0
376 1 -6.203423429910182 -12.673226924554694 6.472634851278952 0 0 0
367 1 -3.6568689439017508 -12.326061861630011 5.615661526112499 0 0 0
402 1 -1.3344335945760992 -12.096364571527019 4.99775437835453 0 0 0
1318 1 -13.752020374833355 -10.550634990014423 4.788887585414029 1 0 0
360 1 -11.204138845076784 -10.232065026575992 4.0337821484730565 0 0 0
359 1 -11.78560118453951 -9.550010626178977 6.575005632647633 0 0 0
378 1 -7.469738666844118 -11.252290714791023 4.902957432659219 0 0 0
390 1 -9.346239862576233 -9.22705724777024 5.820727361352963 0 0 0
379 1 -6.974117978458759 -8.841723566647664 5.08230081681239 0 0 0
369 1 -5.091045123998775 -10.934344590077458 4.307581721514785 0 0 0
413 1 -5.617479813153093 -10.349504316412398 6.683206355470611 0 0 0
415 1 -4.5540680596830345 -8.608160916322007 4.424919797361818 0 0 0
403 1 -2.719433778826069 -10.708287821030329 3.58408938245549 0 0 0
1236 1 -0.7703002786932647 -9.736644892247789 5.218116488668622 0 0 0
459 1 -3.1999885209757206 -9.993803309768564 5.859405866734525 0 0 0
337 1 -13.229871919720381 -8.258694950105214 5.1296641332888715 0 0 0
361 1 -10.895027301351835 -7.902855509805335 4.353896682513797 0 0 0
267 1 -10.98208613842738 -7.211440789000263 6.841829889084069 0 0 0
269 1 -12.641841450578877 -5.877518375054828 5.20788767089555 0 0 0
392 1 -8.347560017679498 -7.489012442623052 3.4116784528667825 0 0 0
288 1 -8.601773784903918 -6.9008594870853255 5.883062144997931 0 0 0
391 1 -6.324434209187619 -6.617263014918999 5.312744465896886 0 0 0
427 1 -4.040488225424427 -6.297802449751735 4.796501174840527 0 0 0
414 1 -4.932448087742806 -8.112353985032868 6.860997425294277 0 0 0
404 1 -2.105437676191629 -8.270481532125338 3.803600011827962 0 0 0
458 1 -0.3815893461491999 -7.4431088567211985 5.496480629903802 0 0 0
450 1 -2.688926730564834 -7.600297863046765 6.082194318757059 0 0 0
416 1 -1.8177332435980222 -6.0139131099875325 4.076994304396626 0 0 0
233 1 -0.35343549024113763 -2.8293901294852652 12.62955564389967 0 0 0
277 1 -11.688364969312271 -3.330415247322488 5.440445025697342 0 0 0
268 1 -10.432459266605365 -4.862067439839771 6.850489430314367 0 0 0
290 1 -7.65490950258166 -5.215043505191115 3.7238400301558396 0 0 0
270 1 -10.154212266788685 -5.44045178681411 4.475474418590432 0 0 0
289 1 -8.129858293641643 -4.484746908701959 6.027215817942482 0 0 0
301 1 -9.057535473488286 -2.9691965463958105 4.548939726911401 0 0 0
312 1 -5.789025545785137 -4.309307065867246 5.763209631676153 0 0 0
313 1 -3.63338522307626 -3.8810718504514163 4.946287363306711 0 0 0
245 1 -8.005659248705872 -0.017059050261401865 13.26717252151756 0 0 0
428 1 -1.4295977829724364 -3.7384035756025416 4.116715777527867 0 0 0
255 1 -2.22231619198163 -5.229480670853452 6.400560645630469 0 0 0
254 1 -1.6922818801235717 -2.8486351723205257 6.565308806551299 0 0 0
1397 1 -12.16390218868427 -1.7707070350566472 3.499586435156898 1 0 0
275 1 -12.916826506301314 -1.2033796956870457 5.988603849368706 0 0 0
749 1 -10.262644607361358 -0.943691477516932 5.201663105629853 0 0 0
745 1 -7.890871333791075 -0.5873909685547645 4.646200196093817 0 0 0
300 1 -7.508078494408722 -2.0662338175253794 6.481651076556668 0 0 0
291 1 -6.540116558120573 -2.735988285939854 3.9917169005402524 0 0 0
323 1 -5.206979707565283 -1.9478837981963526 5.802876538777623 0 0 0
963 1 -11.277509778689659 -2.800226480736084 13.866640400367784 1 0 -1
756 1 -3.06015576994246 -1.4550441109367007 5.057922630551149 0 0 0
253 1 -0.9378120755538308 -1.2885004036999526 4.501425219463529 0 0 0
926 1 -1.0945539303138503 -0.5999334188147589 6.755008894347336 0 0 0
347 1 -10.9308838859852 -13.361953979626685 7.806640413416664 0 0 0
865 1 -13.197532744564427 -13.707985353383426 8.531709804191062 0 1 0
386 1 -11.21644482768515 -12.779868257229715 10.211761614047775 0 0 0
356 1 -12.590839360358554 -11.357997481361746 8.697861558278797 0 0 0
348 1 -8.56009030120127 -13.088791897733968 7.179056509294858 0 0 0
375 1 -8.860502190152161 -12.39442512261203 9.536722679646777 0 0 0
400 1 -4.166821196949002 -11.655903616826002 8.158596315280205 0 0 0
411 1 -6.557890112309253 -12.004281599360553 8.705566785354678 0 0 0
399 1 -5.129846555786667 -13.497797628367895 10.313192191724445 0 0 0
232 1 -2.0325907968763914 -0.8806162801539568 13.631171283778441 0 0 0
703 1 -2.2608277910744317 -13.636507273372896 7.220978290945711 0 1 0
1193 1 -0.30205786631870524 -12.806358253774945 8.970243271465518 0 0 0
470 1 -2.7861059035961375 -13.073779264254993 9.578933297578674 0 0 0
468 1 -1.813047691090249 -11.356576410054728 7.465043280683487 0 0 0
357 1 -11.91972417615626 -9.064266855669974 8.906350745298758 0 0 0
387 1 -10.568732428170136 -10.335518083738656 10.516910435798854 0 0 0
388 1 -10.143812112106724 -10.974626375352598 7.975414735913576 0 0 0
377 1 -7.997386027205969 -10.553259569651255 7.196742418654294 0 0 0
423 1 -8.278279051135097 -10.005515559669265 9.595888740645671 0 0 0
389 1 -9.600671405664464 -8.551363253741464 8.088475687582006 0 0 0
412 1 -5.930364759440073 -9.60357198325174 9.03808162972386 0 0 0
461 1 -3.573399687730527 -9.320989841769464 8.289678187008148 0 0 0
467 1 -1.239381622500817 -9.106440510119482 7.571909948324398 0 0 0
469 1 -2.1328494879580635 -10.68527324474783 9.794117500922669 0 0 0
1324 1 -13.441251050980114 -7.507053087568382 7.364578173840327 1 0 0
266 1 -11.359302901541476 -6.5675065173704095 9.118642301866911 0 0 0
425 1 -7.314456966051638 -8.31074764504017 7.36132533107577 0 0 0
286 1 -9.123492637788868 -6.279714177661257 8.375483246562899 0 0 0
308 1 -7.539434555975622 -7.540271742902778 9.84476327530376 0 0 0
310 1 -6.708396154732856 -5.900211648734784 7.6968305604574905 0 0 0
424 1 -5.3195037544033585 -7.3382953677681515 9.288342614712649 0 0 0
426 1 -4.429741527612531 -5.7688271233255115 7.186531661801963 0 0 0
452 1 -2.951931440742234 -7.022482216958571 8.509242131367204 0 0 0
460 1 -0.5557310633893326 -6.757027490744936 7.80293028949084 0 0 0
439 1 -1.4834861819952785 -8.361922937542067 9.955294408810643 0 0 0
1201 1 -1.0308023426542352 -6.044429341166664 10.06978922521977 0 0 0
1359 1 -12.796465320893407 -5.185413631248991 7.52703088418904 1 0 0
297 1 -10.697092733363217 -4.213473484377809 9.22209342367922 0 0 0
1358 1 -13.057419800181695 -4.434313345368986 9.866153488337202 1 0 0
1364 1 -12.185722561141358 -2.8256994749087454 7.8287033752222275 1 0 0
287 1 -8.445216561034254 -3.8637506624262876 8.516700596975292 0 0 0
309 1 -6.989645161079112 -5.116443116800355 10.077214392528736 0 0 0
320 1 -6.4678830953706 -2.8361352012855576 10.353582681078082 0 0 0
321 1 -6.134932587710827 -3.5861497007995773 8.005179797065699 0 0 0
311 1 -3.9102756358223285 -3.226360602142247 7.340677506349236 0 0 0
257 1 -4.763335710583524 -4.930704697140381 9.54187437178395 0 0 0
451 1 -2.4920823672543513 -4.6966905583673295 8.731731198716785 0 0 0
445 1 -0.15626302377961032 -4.320750712911801 8.058927954918177 0 0 0
444 1 -0.30062782039560254 -3.548607503887556 10.38039702279613 0 0 0
305 1 -11.009467339202786 -0.3824172331700879 7.671743174747837 0 0 0
1363 1 -12.316207793165193 -2.213800040936171 10.12861493580146 1 0 0
304 1 -13.494284719683948 -0.6292950877654278 8.348895734823573 0 0 0
299 1 -9.774427167857109 -2.549485180332111 7.002372133483556 0 0 0
303 1 -9.916219584113886 -1.8619120319385214 9.387449442616502 0 0 0
298 1 -7.707123756166036 -1.4225937185620943 8.708031366323551 0 0 0
437 1 -0.005584005252092794 -9.69656171794037 11.417068699857703 0 0 0
781 1 -5.758715428442285 -0.5006395461065143 10.560326952048198 0 0 0
247 1 -3.67380780277594 -0.14127437430062173 9.767395302502967 0 0 0
322 1 -5.509712623060393 -1.2257527461552744 8.172952946028216 0 0 0
248 1 -4.0859599732257035 -2.5331957101729774 9.760024457059513 0 0 0
246 1 -3.2634914016275083 -0.7818214520286464 7.4958963845813695 0 0 0
256 1 -1.9709296565469554 -2.2684005083649232 8.87017038876541 0 0 0
324 1 -5.613949930497688 -0.351208786947657 3.986647014751677 0 0 0
346 1 -13.751760528930427 -12.921122289589885 10.947547757880526 0 0 0
373 1 -11.60628634502818 -12.002916476707393 12.708762902921402 0 0 0
421 1 -9.919309789845924 -14.035481541544973 11.869570586090495 0 0 0
409 1 -7.481051725784095 -13.77798768159959 11.0365705463975 0 0 0
408 1 -7.776957976803407 -13.159533481608339 13.368522662975034 0 0 0
422 1 -9.186759399173045 -11.804645033335992 11.875275241295848 0 0 0
410 1 -6.832114720429221 -11.448925839708627 11.122045199986113 0 0 0
465 1 -5.43123072462914 -12.8127132556521 12.677790455057467 0 0 0
434 1 -0.6676106308277792 -12.071207466171721 11.367831478426043 0 0 0
1253 1 -1.774204369336692 -13.787635695165335 13.465529259583898 0 0 0
471 1 -2.9715240854264966 -12.451677766166446 12.031778303971874 0 0 0