LAMMPS data file via write_data, version 2 Aug 2023, timestep = 0, units = metal

1881 atoms
3 atom types

-13.761464766256864 13.761464766256864 xlo xhi
-14.021183855969175 14.021183855969175 ylo yhi
-14.307457299211217 14.307457299211217 zlo zhi

Masses

1 55.847
2 1.008
3 1.008

Atoms # atomic

1602 1 -11.690207717473088 -11.1736120796829 -12.94153983809534 0 0 0
1616 1 -9.189377459995473 -10.200875950453034 -12.150555117358426 0 0 0
1738 1 -10.915154161826395 -11.288444037391624 -10.552419205944288 0 0 0
1614 1 -9.424570670500735 -12.545140364270317 -12.891515243222434 0 0 0
1819 1 -13.314072411024307 -12.346307444806289 -11.44601300744051 0 0 0
1753 1 -8.805051659672396 -12.611787696719219 -10.517043699700997 0 0 0
1617 1 -11.421424134395837 -9.063589029037981 -12.059039750385711 0 0 0
1735 1 -13.127305267524553 -10.137775756189717 -10.556826824013653 0 0 0
1740 1 -10.684335586429231 -8.984082803049493 -9.780470127847336 0 0 0
1755 1 -8.581081666391738 -10.222491643765798 -9.631511821249635 0 0 0
1601 1 -11.740882834874627 -13.582208567440782 -13.68379203496559 0 0 0
1145 1 -11.11658566767542 -13.569129203412274 -11.343420079311358 0 1 0
1821 1 -12.620881874596499 -12.383922435871604 -9.095462672568692 0 0 0
1146 1 -10.469971679948262 -13.692293582769215 -9.025551607328271 0 1 0
1476 1 -5.32766209566403 -10.332911451965218 -13.305791819420927 0 0 0
1635 1 -6.996679566528581 -11.428234205967598 -11.931506321740498 0 0 0
1650 1 -4.894996923612757 -12.65561823693238 -11.665066633938721 0 0 0
1653 1 -4.7078262635484585 -10.387130168184694 -10.9670444635429 0 0 0
1458 1 -7.467593118249191 -9.076939680987403 -13.452609373456003 0 0 0
1494 1 -3.0852233722341236 -11.684116252731485 -13.176607824618433 0 0 0
1050 1 -4.121089307467628 -12.722811134077332 -9.3953055781331 0 1 0
1769 1 -6.446392060930413 -11.475036394470637 -9.42838044018282 0 0 0
1636 1 -6.79626551948156 -9.12136843067568 -11.064776842988124 0 0 0
1495 1 -2.9494562937759206 -9.278727774150521 -12.39505843280449 0 0 0
1767 1 -6.586960061274233 -13.81295420115403 -10.171212465466056 0 0 0
1633 1 -7.248406383927534 -13.8761052103399 -12.682015096601676 0 0 0
1651 1 -5.594060904671926 -12.721884935667987 -14.093265380249575 0 0 0
980 1 -3.4654709433353084 -13.893525947995027 -14.05216566122673 0 1 0
1637 1 -6.138804437714402 -9.166835775651883 -8.747898110877905 0 0 0
981 1 -2.6516564978084816 -13.915354705656146 -11.693312201104948 0 1 0
1666 1 -2.4147461882412404 -11.57050599359925 -10.882238618227095 0 0 0
1668 1 -2.313922213916019 -9.241985500993 -10.03989553581168 0 0 0
1513 1 -0.8593615067529878 -10.42330000728914 -12.32019676341165 0 0 0
1514 1 -0.21083285737699775 -10.4178120783789 -9.988988211121757 0 0 0
1512 1 -1.0784197580299395 -12.657582853531775 -13.046786094698508 0 0 0
1532 1 1.3555309875607549 -11.81401326132581 -12.275253395106816 0 0 0
1680 1 -0.1772437479344724 -12.909886823185843 -10.716749608198699 0 0 0
1533 1 1.9906488518585466 -11.916242734783442 -9.88152799273412 0 0 0
1339 1 0.857815814910893 -9.370129704551921 -13.710554600274024 0 0 0
1534 1 1.6874715043598982 -9.462232261395766 -11.425493972878618 0 0 0
1552 1 2.205257312108806 -9.577191212024879 -9.186555470344082 0 0 0
1059 1 -2.0104536961825055 13.978884155657129 -9.35513967291811 0 0 0
1357 1 3.0432176622136815 -10.642593137910245 -13.683306847333702 0 0 0
1375 1 7.33386981576183 -13.158176082685845 -13.387779865158045 0 0 0
1376 1 5.448176519083702 -9.515890595240592 -12.77607125924368 0 0 0
1377 1 6.1639581702500585 -9.717918911897499 -10.430859938538722 0 0 0
1548 1 5.172539420467306 -11.95558660415676 -13.444036006469084 0 0 0
1549 1 4.0684361372155315 -13.00735343139859 -9.735333306343733 0 0 0
1550 1 3.869472520159796 -10.701933654214805 -11.407376220018943 0 0 0
1565 1 5.848117294142575 -12.021831736275367 -11.125673840809515 0 0 0
1395 1 7.621538762374154 -10.802166389932932 -12.677904862263834 0 0 0
1531 1 3.457010962747269 -12.94030978362169 -12.068659179435366 0 0 0
1394 1 7.993636635356676 -13.211229234324968 -11.114078681510964 0 0 0
1580 1 8.323697632043285 -11.014731888767676 -10.247934485336577 0 0 0
1397 1 8.469835947914437 -8.67028174191434 -9.479361268346143 0 0 0
1535 1 4.301072976479997 -10.694008098449324 -8.874806099352643 0 0 0
1413 1 7.713864836506481 -8.485504047873848 -11.78436405213106 0 0 0
1360 1 3.910654848802409 -8.479797009134842 -10.411915314142119 0 0 0
1359 1 3.256618901168416 -8.33195097761746 -12.846988195157742 0 0 0
46 1 7.121755957841447 -8.527357252908999 -14.251778755178192 0 0 1
1734 1 13.673665694420759 -10.08377440342345 -12.923155561664089 -1 0 0
1733 1 13.48094989274081 -12.297013361588881 -13.824183642655674 -1 0 0
1227 1 9.942334166053872 -9.710155123193747 -11.645188257713391 0 0 0
1246 1 11.948558484293017 -11.138635359275439 -11.603836855578642 0 0 0
1393 1 9.784613570248489 -12.100617050916236 -12.536992905195511 0 0 0
1411 1 11.859227043850247 -13.52757977732062 -12.414986600492545 0 0 0
1412 1 10.339840389623202 -12.145091119687699 -10.02772513789947 0 0 0
1429 1 12.625283923093555 -11.282092637901275 -9.315390093614099 0 0 0
1414 1 10.576963586099822 -9.847343406967388 -9.265547483346925 0 0 0
951 1 12.410168537011508 -13.496885576720022 -10.039338163610983 0 1 0
1248 1 12.298446096490245 -8.852641504349634 -10.799228697019617 0 0 0
13 1 11.384793792042348 -11.038072434163816 -13.976632284690757 0 0 1
1247 1 11.6244392530961 -8.647476986905982 -13.12760636361375 0 0 0
7 1 9.358119770132674 -9.742025717893354 -14.219715852090152 0 0 1
1578 1 8.67023812607102 -13.216771632158839 -8.645812659855745 0 0 0
1442 1 -9.76836001504423 -7.925315331186967 -13.585829415264708 0 0 0
1443 1 -11.741658108482442 -4.338514046735975 -12.914190195410201 0 0 0
1460 1 -9.645006615360405 -5.752933087410307 -12.792053621332089 0 0 0
1605 1 -11.95159423704575 -6.584421534591732 -13.643171836636505 0 0 0
1606 1 -13.402849114386562 -5.28510917943548 -11.46359901966602 0 0 0
1742 1 -12.886429868236533 -7.770364039280854 -9.850445915819462 0 0 0
1638 1 -9.059378990001946 -8.033959901031906 -11.230623520334362 0 0 0
1620 1 -10.925949737364158 -4.424608071112134 -10.50164788143981 0 0 0
1743 1 -11.229986530101433 -6.704504550628819 -11.285078867470645 0 0 0
1757 1 -8.777057514201879 -5.694189613741001 -10.520008439781869 0 0 0
1266 1 -12.613131074485471 -5.510886238956516 -9.104048752640328 1 0 0
1621 1 -8.553804706522351 -3.246532017114273 -9.729370032036687 0 0 0
1622 1 -10.354711852014855 -6.665729061037554 -9.044636636384109 0 0 0
1462 1 -9.32278397934195 -3.3674899966256113 -11.984481357437621 0 0 0
1607 1 -13.15827615009423 -3.1213891655770354 -10.635173465677457 0 0 0
1604 1 -13.60392388560893 -7.702543552540486 -12.219910051545419 0 0 0
1744 1 -8.229204142621755 -7.918061598626193 -8.928819015550745 0 0 0
1655 1 -4.410151360594236 -7.992975997919357 -10.218919582088121 0 0 0
1461 1 -6.303444264346028 -4.476933432089572 -9.633162232128564 0 0 0
1459 1 -7.376596394667084 -6.843568264366879 -12.67584571565862 0 0 0
1478 1 -5.2844811309897555 -7.946501395284337 -12.675535375839521 0 0 0
1479 1 -7.250820828097675 -4.355294537854986 -11.989857927000632 0 0 0
1480 1 -6.584653808628032 -6.7830922002882215 -10.299258266278695 0 0 0
1498 1 -4.904577247483125 -5.612535202898055 -11.708182876894433 0 0 0
1499 1 -4.274448353364569 -5.786020158035816 -9.44409246496685 0 0 0
1323 1 -3.320025687857834 -4.578355564128465 -13.205109136541607 0 0 0
1306 1 -5.431226440013539 -3.3776529201081438 -13.348728872091817 0 0 0
1500 1 -4.707348195883812 -3.3856205833044246 -11.016007596314248 0 0 0
1496 1 -3.4904106056331354 -6.835420759230505 -13.96366805511671 0 0 0
1517 1 -2.7584146214096155 -6.990536983364696 -11.63242068056563 0 0 0
1305 1 -5.699762791253411 -5.655019131338021 -14.148345193994118 0 0 0
1477 1 -7.904255295879575 -4.511598480782286 -14.305846523744906 0 0 0
1324 1 -2.580900727235653 -4.555630296611566 -10.878647527286871 0 0 0
1516 1 0.026190328559975384 -8.185494226774278 -9.149292383435096 0 0 0
1321 1 -1.3283154020429997 -8.1046958696921 -13.846078146096083 0 0 0
1515 1 -0.5161535273125644 -8.175129139659841 -11.53928354665381 0 0 0
1497 1 -2.111757244106901 -6.968094591033102 -9.320473170884028 0 0 0
1322 1 -1.137664411840401 -5.855968489845091 -13.128316947301176 0 0 0
1340 1 1.1527915598393612 -6.983865737825864 -12.91552113202391 0 0 0
1342 1 -0.7729566815242137 -3.7263313538431273 -12.319009152596804 0 0 0
1180 1 1.4074374712886488 -4.651545054314129 -12.202300511622164 0 0 0
1341 1 -0.47147516755467045 -5.814335160214133 -10.700516877988521 0 0 0
1343 1 -0.17579760140222156 -3.695537196455911 -9.938058984539554 0 0 0
1361 1 1.7874070630352978 -7.174361831628811 -10.586959358073887 0 0 0
1556 1 1.9357085026215657 -4.861470940062096 -9.840820107948026 0 0 0
1195 1 2.9603696596163473 -3.7100866562858332 -13.713151221739961 0 0 0
105 1 2.688974384794566 -5.987763002467652 14.22080132408682 0 0 0
1210 1 5.660011649504849 -7.2563260803698 -11.937335395471544 0 0 0
1194 1 3.5020053093339634 -6.03875063825206 -12.0250516629294 0 0 0
1211 1 5.793610602330116 -4.998498968675552 -11.12698456125916 0 0 0
1378 1 6.323808960457836 -7.319610676606862 -9.623422557082428 0 0 0
1380 1 4.088435943851771 -6.208737495158489 -9.625630355303354 0 0 0
1212 1 7.479569925985999 -3.8668083013023313 -12.586786340559307 0 0 0
1229 1 7.237208451661882 -6.1495962760601905 -13.487412551805953 0 0 0
1196 1 3.653142714739886 -3.6923910566216467 -11.259916368923689 0 0 0
33 1 5.2098441640923845 -4.921234532652624 -13.408170735029694 0 0 1
1230 1 8.034550620049668 -6.217990267871777 -11.123260568280209 0 0 0
1231 1 8.232961071737353 -3.914663874689861 -10.197850328088977 0 0 0
1382 1 4.49312737979378 -3.77751577276522 -8.935847260032105 0 0 0
1399 1 6.524093895457405 -5.065377405374928 -8.860037316542446 0 0 0
1358 1 4.946469393487586 -7.214937456524582 14.293489894012128 0 0 -1
1115 1 13.570030674696593 -3.002889893271476 -13.049512577097085 0 0 0
120 1 13.389101222564584 -5.4275390522758045 -13.84520183073293 0 0 1
1020 1 12.66591127030922 -4.196727435321705 -9.190297090788441 0 0 0
1113 1 11.721252088520451 -6.3141863208249704 -12.454257238216506 0 0 0
1265 1 12.553619306031159 -6.524732403337449 -9.99315197004867 0 0 0
1098 1 9.669900051340285 -5.153982700528431 -12.583552543933065 0 0 0
1249 1 10.066881368911847 -7.415943869959335 -10.991767361095702 0 0 0
1251 1 10.513786643783902 -5.224479150278016 -9.991257355083945 0 0 0
1114 1 12.010050801873849 -4.064079532839475 -11.631077585461501 0 0 0
1228 1 9.354765914914292 -7.530153498199604 -13.327969348997565 0 0 0
44 1 11.35714129445181 -4.037340468393369 -13.956402975815715 0 0 1
1619 1 10.754363342249057 -2.808044392739509 -9.284248155359283 -1 0 0
1084 1 9.149904585232218 -2.881470379568528 -14.06001582756794 0 0 0
1100 1 9.822311875644093 -2.927065387770888 -11.699032260962424 0 0 0
1445 1 -11.459411662400235 -2.051730008499934 -12.072094032370648 0 0 0
1280 1 -11.867538248698322 0.36180551393694493 -13.817567169768564 0 0 0
1464 1 -9.082233360311381 -0.9823649029467063 -11.382935785245156 0 0 0
1292 1 -9.862133168368334 -0.9021126330252027 -13.695267090368798 0 0 0
1282 1 -9.631932371729498 1.4145688447908107 -12.718823859772339 0 0 0
1021 1 -11.207840015608042 0.3887975776123369 -11.368288661899996 1 0 0
1295 1 -8.793750927390404 1.4375160579144204 -10.540916737636678 0 0 0
1447 1 -13.400801473093482 1.5664419303960493 -11.3594205781602 0 0 0
1624 1 -10.709687661142574 -2.012398098459185 -9.866980075676434 0 0 0
1609 1 -12.831288521575374 -0.7317009206010994 -9.898600551673724 0 0 0
1271 1 -12.620506062901434 1.6088648121985276 -9.079241195625201 1 0 0
1646 1 -10.510534861522256 0.09011932970653369 -9.012407191098076 0 0 0
1446 1 -13.495411668120862 -0.717419516681117 -12.344535681834891 0 0 0
1463 1 -8.21848505851038 -0.9118302869446016 -9.076574709310064 0 0 0
1466 1 -10.879959249991629 2.579384256609986 -10.436959822621152 0 0 0
1277 1 -11.822556979186416 2.659502592401777 -12.819058828639513 0 0 0
1481 1 -6.802627680217667 -2.0865297413344273 -11.190113574152686 0 0 0
1291 1 -7.519655066307287 -2.1706523325036144 -13.5532313938028 0 0 0
1293 1 -7.300233946856358 0.29487050292301653 -12.651026622295877 0 0 0
1307 1 -5.205823490585928 -1.088441053618567 -12.682649721965369 0 0 0
1308 1 -4.463539258799495 -0.9693718742376909 -10.27464844855825 0 0 0
1327 1 -4.967133979737813 1.2765349078021888 -11.715712878785846 0 0 0
1483 1 -6.6526434027020604 0.1778317634799098 -10.27202588267038 0 0 0
1328 1 -4.332941017917131 1.195603070370458 -9.251108115832857 0 0 0
1325 1 -3.006898207451581 -2.2672933549199286 -12.376720507139995 0 0 0
1170 1 -3.2351016006358595 2.4387374413577643 -13.131443155230425 0 0 0
1157 1 -3.4104534080530637 0.10125018785726603 -13.95450254849902 0 0 0
1147 1 -5.555157451675646 1.2849050691870598 -14.178044818991092 0 0 0
1310 1 -6.369739847124892 2.3868752234043935 -9.518572589978223 0 0 0
1169 1 -2.89550711116088 0.06477999327628758 -11.701494753171058 0 0 0
1309 1 -7.0235567933171605 2.584642646520143 -11.910316765028734 0 0 0
1294 1 -7.714263776239498 2.574471526791209 -14.221226562415346 0 0 0
1482 1 -6.083018012379377 -2.247416634147873 -8.802923184026302 0 0 0
1171 1 -2.5474811248972156 2.3119525006335646 -10.806588172443714 0 0 0
1363 1 2.1755521898440033 -2.5609540974408347 -8.999895490736396 0 0 0
1326 1 -2.2648985141646882 -2.3290869248953925 -9.962124140646988 0 0 0
1346 1 -2.005314581042482 0.04748390814824788 -9.30291663251239 0 0 0
1181 1 1.4982048238233077 -2.5001636507732563 -11.38356939453126 0 0 0
1168 1 0.7888954771115344 -2.453856461772162 -13.75126939562954 0 0 0
1344 1 -0.6258905090878599 -1.2574400527486347 -11.522754870440027 0 0 0
1182 1 1.0578628663146237 -0.23517525714070153 -13.001089483715567 0 0 0
1183 1 1.8233317810924756 -0.16634054601613357 -10.57842922000127 0 0 0
1184 1 -0.32774972775095357 1.0605719005557308 -10.665321802739951 0 0 0
305 1 -1.1454810956873729 1.1417356810120385 -13.08462625983886 0 0 1
1063 1 1.2134674635963076 2.2611160755425193 -12.2547833197762 0 0 0
1199 1 1.9440719181518542 2.159433457956327 -9.92182218354877 0 0 0
1051 1 -1.3774247374219488 -1.1927954519746127 -13.827090004002676 0 0 0
1345 1 0.0672780481905928 -1.4197716274291103 -9.118078409963672 0 0 0
1197 1 3.2146539250288875 -1.476271992771201 -12.810928191934668 0 0 0
1214 1 6.062697270332173 -2.6239884354186884 -10.395893940727515 0 0 0
1072 1 5.272300884737543 -2.657217132267057 -12.602225790351122 0 0 0
1061 1 3.3423605901263187 0.9642952849170925 -12.157427836645482 0 0 0
1198 1 3.832659140262937 -1.4350227391424024 -10.49857421785533 0 0 0
1073 1 5.631245710273632 -0.3172336703732146 -11.896016515949864 0 0 0
1086 1 7.229385628316649 0.7560835510353439 -13.348389646745744 0 0 0
1216 1 4.1429615409760245 0.9116621614747125 -9.82014599096932 0 0 0
1085 1 7.664013456564575 -1.6346120431910656 -11.81122945135883 0 0 0
1074 1 5.065234135644875 2.0923402537237745 -13.523004140488466 0 0 0
1088 1 5.639618328108384 2.1028981574806007 -11.188666950429305 0 0 0
1087 1 7.885227322106925 0.7901442478008445 -10.935547503681374 0 0 0
1233 1 6.133676283641009 -0.32108711402806556 -9.5342621577954 0 0 0
1234 1 8.50282686554996 -1.518717999802261 -9.546810343793181 0 0 0
213 1 6.992522961903401 -1.5390181549305098 -14.104706248037916 0 0 1
1235 1 6.513391178428417 2.003993434558639 -8.822611885669257 0 0 0
197 1 4.874503759142151 -0.24499236844548378 -14.293890341521594 0 0 1
332 1 13.52598188964615 1.696894884570609 -13.866133363155546 0 0 1
102 1 11.471426082640843 -1.6200050688227297 -13.280238290913209 0 0 1
1008 1 12.193080947676844 -1.7731693103379875 -10.939085084181972 0 0 0
1099 1 9.34003862153606 -0.5882521108768621 -13.263009095397805 0 0 0
1101 1 10.063522291455001 -0.4056694771417906 -10.919029540565113 0 0 0
1000 1 9.585429192524597 1.7398883339350295 -12.352201357197147 0 0 0
1009 1 11.9176009673555 0.7033409768192662 -12.416087930090058 0 0 0
1119 1 10.309333383898679 1.8048943701732156 -10.14528444820737 0 0 0
1022 1 12.436330933561724 0.4592385126684473 -10.024325853112382 0 0 0
1448 1 -13.140692401906566 4.080268947365836 -10.740644936303443 0 0 0
1278 1 -12.825201354109804 6.2900578646667515 -9.961956412458907 0 0 0
1283 1 -11.322137067530802 4.914293463981624 -12.06438154593286 0 0 0
1284 1 -10.753951665105088 5.039418326197927 -9.768940173900617 0 0 0
1285 1 -11.111660959501615 7.3378422216608445 -11.28016989735861 0 0 0
1296 1 -9.173865784784986 3.7419090609796317 -11.882213425266839 0 0 0
1141 1 -11.826701262486417 7.475880117939946 -13.64453181697075 0 0 0
1298 1 -8.977212366265494 6.0035783726868726 -11.067805468433363 0 0 0
1138 1 -9.572879730543896 6.14242825903222 -13.529341607310515 0 0 0
1297 1 -8.482768918575896 3.6971875606235702 -9.475673287731805 0 0 0
1286 1 -10.387499943610274 7.473405449858484 -9.062195881907535 0 0 0
972 1 -13.439371850954624 6.348409859581251 -12.219099043453628 1 0 0
1299 1 -8.238354956308111 6.02957992923549 -8.800343285519666 0 0 0
1158 1 -5.376375199276902 3.7605447755702226 -13.301008731756012 0 0 0
1149 1 -7.3152246568468495 7.0973353352676 -12.659606637199184 0 0 0
1148 1 -7.37299699966639 4.876587440767311 -13.394377403393044 0 0 0
1150 1 -6.5564995726136255 7.196505494901585 -10.318700521339514 0 0 0
1159 1 -4.713359166118341 3.5927623836942733 -10.898662552450586 0 0 0
1160 1 -5.206579496068477 6.049383234585273 -12.425633398139912 0 0 0
1161 1 -4.370300710317387 6.018533369467237 -10.191356809357949 0 0 0
1311 1 -6.832719959697491 4.820703556575159 -11.010886542942611 0 0 0
983 1 -3.4804186127881263 7.181624808313879 -13.9747177215821 0 0 0
1044 1 -2.9840539119208227 4.740343744479793 -12.365336084408577 0 0 0
1045 1 -2.7131777902939582 7.155027801788682 -11.64892503919812 0 0 0
1163 1 -4.227998886141815 8.336018344631276 -9.448629566401081 0 0 0
1162 1 -4.901776333174249 8.418489582106647 -11.686798029195668 0 0 0
1312 1 -6.133657362296186 4.678457528030679 -8.777041893092985 0 0 0
1172 1 -2.2816431330077354 4.728812389070663 -9.996699673719675 0 0 0
1052 1 -0.9529211845292309 3.3925275505509784 -12.313321812457446 0 0 0
1054 1 -0.6708903455917934 5.804752209159984 -11.53591527909866 0 0 0
1064 1 0.721340748106245 4.60093661449403 -13.774419349928412 0 0 0
1065 1 1.41087991931143 4.4845657198657225 -11.301611096995591 0 0 0
1186 1 -0.1611933924463802 3.341888713300241 -9.758006541958137 0 0 0
982 1 1.0651959937999766 6.922412319454596 -12.895210779774839 0 0 0
1188 1 0.05112752479003291 5.729269804216811 -9.110435267872223 0 0 0
1066 1 1.8818602408970833 6.790503577487376 -10.654294725094966 0 0 0
1174 1 -2.0811194794342835 7.038612570121527 -9.268489081582374 0 0 0
1053 1 -1.3378573387376331 5.754772506459792 -13.755134171448034 0 0 0
1201 1 2.216942405050368 4.460209398093715 -8.95094928319087 0 0 0
984 1 -0.34050215687805974 8.081182065463397 -10.720815763369053 0 0 0
1055 1 -1.1544572943824498 8.20446266393603 -13.14112011916309 0 0 0
987 1 2.898491037235072 3.413241124267268 -13.607954499064016 0 0 0
1076 1 3.279245249758805 5.612516818564847 -12.807869182809393 0 0 0
1103 1 8.292897551790933 3.0157387293798283 -10.358345408874449 0 0 0
440 1 7.616101280557267 3.1524537966013337 -12.681692367279773 0 0 1
993 1 5.42034877573543 4.303247657884709 -12.654713522256792 0 0 0
1075 1 3.5790172060789978 3.2271981345213288 -11.21058865747736 0 0 0
1090 1 6.080776649532805 4.283459769380174 -10.372492014157437 0 0 0
995 1 5.687179284635565 6.627156455954429 -11.996063036465623 0 0 0
1001 1 7.756087390531253 5.362342158823667 -11.788711420358485 0 0 0
1003 1 8.06202509802139 7.793781971194816 -11.158541642227359 0 0 0
1077 1 3.919499189675104 5.518447045201137 -10.448383101569751 0 0 0
1092 1 6.4155062037645045 6.650265943423234 -9.753732293004875 0 0 0
1002 1 7.202484078206556 7.886564495843272 -13.47847459904329 0 0 0
999 1 4.213653845784496 7.799653885522387 -9.754282817525567 0 0 0
988 1 3.570327105119759 7.878615543835943 -12.08768627738932 0 0 0
1218 1 4.18700827365727 3.1813398930969594 -8.894721767007816 0 0 0
424 1 6.985326648262209 5.524460516807375 -14.202749490865946 0 0 1
1105 1 8.501330164728955 5.322207611125597 -9.573642058089522 0 0 0
1107 1 8.643923403973933 7.745386942428054 -8.676583619089328 0 0 0
1133 1 -13.744880787615218 4.044033832731364 -13.056088738927574 0 0 0
1120 1 12.778326865123805 2.8105490334604415 -9.189055629604955 0 0 0
333 1 11.415440081884963 2.9806756179094673 -14.004763454488254 0 0 1
1023 1 12.068162626903835 2.939171908646836 -11.647662554127695 0 0 0
959 1 9.376177842061427 6.570690602524666 -13.274135650711727 0 0 0
965 1 11.59575703929313 5.315035160461525 -13.171627414819097 0 0 0
1010 1 9.985811014484465 4.089530405663828 -11.706453819452715 0 0 0
1012 1 10.141038679926048 6.5624124509919195 -10.921593288416773 0 0 0
1025 1 12.280550857649374 5.234972379886274 -10.896449889051418 0 0 0
966 1 11.845272763134876 7.531057872246121 -12.402813705772035 0 0 0
967 1 12.484431335242729 7.501309159941885 -9.968475950080407 0 0 0
1011 1 10.620535334844465 4.1403727882270704 -9.336079521814138 0 0 0
315 1 9.219450956400856 4.157877402676922 -14.112999202058747 0 0 1
1013 1 10.851975268283024 6.4811327208443625 -8.583116128373431 0 0 0
1140 1 -9.431984045142428 8.518132243584413 -12.747127825274145 0 0 0
1142 1 -8.737686414111979 8.401693637688995 -10.457459505226398 0 0 0
949 1 -13.284092996439297 8.580129819763032 -11.428021902842062 1 0 0
1034 1 -11.399013567777697 12.173102924818862 -12.166008860139176 0 0 0
1037 1 -9.60865674547394 13.107367302707809 -13.596300511997656 0 0 0
1135 1 -11.628610217593591 9.839477090204303 -12.755213934942041 0 0 0
1136 1 -13.043549151155936 11.169481632969172 -10.643958822695495 0 0 0
1143 1 -9.338163185309622 10.763229204180524 -11.999635821021899 0 0 0
1144 1 -10.647301213058606 12.019906940380556 -9.691675604015803 0 0 0
1287 1 -10.944777886622662 9.67786000814539 -10.519776451444162 0 0 0
1038 1 -9.0084375087096 13.091189141218988 -11.238633287148815 0 0 0
1137 1 -12.763637543222202 13.345035238757658 -9.95016729721091 0 0 0
973 1 -12.58798177763429 8.600824529872456 -9.1697337375184 1 0 0
1153 1 -8.543635166272399 10.67458977003752 -9.710652050618293 0 0 0
1428 1 -13.503473824311193 13.35965256334208 -12.302522987819355 1 -1 0
1155 1 -8.31793802744116 13.165125080056674 -8.882444856538203 0 0 0
1039 1 -5.660200647249431 8.417989211844406 -14.095625577876824 0 0 0
978 1 -5.176028842330258 12.92344434560689 -12.511212435865886 0 0 0
1151 1 -7.051627798517512 9.581362410637686 -11.909249227576474 0 0 0
1042 1 -7.627764917426601 11.861859302723731 -13.469817930533768 0 0 0
977 1 -5.381221771259931 10.717494339483101 -13.2743322123045 0 0 0
1041 1 -4.544972526997892 10.728127006730224 -11.037132758713057 0 0 0
1043 1 -6.946550821444468 11.88003983892857 -11.010770183324443 0 0 0
1049 1 -4.443509877283754 12.964484091331942 -10.170946317853815 0 0 0
1046 1 -3.2591923342546334 9.587130506937081 -13.260039605897296 0 0 0
1152 1 -6.259294739278399 9.608875693250843 -9.563232824419913 0 0 0
1048 1 -3.067476993987704 11.884483467466067 -12.47408619423123 0 0 0
1164 1 -6.131883823568952 11.889516696653823 -8.677328594597483 0 0 0
1040 1 -7.80284730942851 9.552796691890451 -14.176809377578937 0 0 0
1047 1 -2.4700161116399997 9.39239796521663 -10.883553614117954 0 0 0
1057 1 -2.2724422139006872 11.667118531401224 -10.106907349315392 0 0 0
1080 1 2.0139043750844134 9.125111740082732 -9.893783193846552 0 0 0
979 1 -0.7455046177989999 10.610892336194306 -12.258583878845812 0 0 0
986 1 -0.5081246700511812 12.730410580701198 -11.596147470624924 0 0 0
991 1 1.3457332454704538 9.127172825579533 -12.180767755649896 0 0 0
990 1 1.7108678193466886 11.47016003387594 -11.403817896130244 0 0 0
1068 1 -0.061078465728998665 10.57395572524763 -10.022808310643004 0 0 0
952 1 1.029498690275668 11.538073698530232 -13.769474547978406 0 0 0
1070 1 0.11183615046523165 12.872286454712862 -9.102045274744643 0 0 0
1693 1 2.258757084025248 11.413388432611706 -9.019220120891408 0 -1 0
985 1 -1.1302171059612203 12.974077976196858 -13.893202757088188 0 0 0
953 1 2.9653502909759197 10.278916217703744 -13.72707377921718 0 0 0
954 1 1.8721763580814095 13.730700258656592 -10.716469386588 0 0 0
1530 1 1.1468825863571706 13.80016942308083 -12.981532682402163 0 -1 0
957 1 3.322984045042986 12.66080517671987 -12.945177616375517 0 0 0
989 1 3.6242510361323887 10.239975379099432 -11.328309390961646 0 0 0
955 1 5.199667740009218 9.022896789143518 -13.592573087356683 0 0 0
956 1 5.457390384493891 11.35028118292916 -12.882597585094437 0 0 0
996 1 5.749306468903477 9.095875915252629 -11.169094658867728 0 0 0
1006 1 3.9762857098273976 12.572639838596507 -10.478883052994604 0 0 0
961 1 7.61762470079093 10.222304068445554 -12.65839879275601 0 0 0
970 1 7.6886188034401854 12.481964292344225 -11.821189328230805 0 0 0
1007 1 5.906178610274008 11.296728561492381 -10.3717718780399 0 0 0
1016 1 8.240607722507054 10.146449320644232 -10.290759084979548 0 0 0
958 1 6.236657979239581 13.66966484772905 -9.64196454775417 0 0 0
963 1 5.562429324478661 13.777563679770266 -12.01030770727254 0 0 0
992 1 4.374536686105081 10.199522929307433 -8.890455592447527 0 0 0
1004 1 6.545479982625636 8.942098551556922 -8.830838131920808 0 0 0
670 1 7.212059483389659 12.511874817903825 -14.207860814297394 0 0 1
964 1 8.396887370028761 12.50999831647704 -9.499796973794794 0 0 0
655 1 4.994306816484201 13.5439877962506 14.26099491945371 0 0 0
1033 1 13.655113445874218 10.876660935197515 -12.887952737903747 -1 0 0
1134 1 13.493042073105311 8.717156235416427 -13.808122063902472 -1 0 0
960 1 9.773088339620365 8.982613608294693 -12.530738842955069 0 0 0
950 1 11.644087955506897 12.179723544234422 -13.284017282749168 0 0 0
962 1 10.068630329375218 11.267908660340462 -11.720341430032146 0 0 0
968 1 12.14766611967114 9.812526420035661 -11.638100270234023 0 0 0
969 1 10.726297797984849 11.164834026430976 -9.387392065068918 0 0 0
1014 1 10.3548213164514 8.871632820446278 -10.08434742566988 0 0 0
975 1 12.274733266212909 12.344242459752545 -10.850351692398025 0 0 0
974 1 12.830793474947882 9.885414734042312 -9.255637600435021 0 0 0
971 1 10.030946569141832 13.671350856512463 -10.980531958092744 0 0 0
561 1 11.327655277854099 9.9253169557211 -13.98809479344746 0 0 1
948 1 9.516441546435786 13.603308930849769 -13.286752388337211 0 0 0
544 1 9.352005922789068 11.236092240460488 -14.116926891367166 0 0 1
1739 1 -10.24023663267987 -11.483258718409829 -8.106562477246344 0 0 0
1820 1 -11.842252104476666 -12.448218515711702 -6.695591129011198 0 0 0
1822 1 -11.607370470764453 -10.135714612405316 -5.964350103104632 0 0 0
1831 1 -9.654211591616999 -11.489034189452639 -5.849011840459115 0 0 0
1833 1 -9.30788112216031 -9.138061597709074 -5.131175255573762 0 0 0
1868 1 -11.23855285172009 -12.479803090785305 -4.307330952002504 0 0 0
1870 1 -11.102827122237471 -10.106336604702099 -3.5800189930456376 0 0 0
1823 1 -12.408295891437298 -10.139854855314118 -8.297221665111506 0 0 0
1826 1 -13.172452491489878 -8.843525365285938 -3.767628776311348 0 0 0
1864 1 -13.30019232908098 -11.186972180234783 -4.5140290984638405 0 0 0
1304 1 -9.701191334716441 -13.88701285523303 -6.536618121781305 0 1 0
1741 1 -10.023036978705143 -9.16905846860594 -7.4300828462067 0 0 0
1832 1 -8.813378648168236 -11.266774831659554 -3.4616159719397253 0 0 0
1874 1 -9.005709948790784 -13.600596764321912 -4.216037855812038 0 0 0
1863 1 -13.568607408805297 -13.51488734237775 -5.203559817326733 0 0 0
1652 1 -3.815498603272834 -10.553841838248136 -8.59917169731493 0 0 0
1754 1 -8.117619461424129 -12.751688672559366 -8.069521964572555 0 0 0
1756 1 -7.955529007357026 -10.377959295154996 -7.30053702975051 0 0 0
1779 1 -3.6034719582927135 -12.851512505678523 -7.0075709500497805 0 0 0
1768 1 -5.613994734264381 -11.570033034059609 -7.246584463407384 0 0 0
1770 1 -5.4289430538523735 -9.255329376886284 -6.3850176870061 0 0 0
1839 1 -7.331787444581301 -12.606788953950897 -5.705369995948692 0 0 0
1841 1 -7.099872542077064 -10.288969513492653 -4.8965526873773175 0 0 0
1846 1 -4.895344945011537 -11.59557841345025 -4.750305646348462 0 0 0
1781 1 -3.2711454079707813 -10.475262031897682 -6.264003698953786 0 0 0
1849 1 -4.709334270679484 -9.23762593371258 -3.9583645165628614 0 0 0
1780 1 -2.8342708808300543 -12.916878571120193 -4.6072777090621315 0 0 0
1840 1 -6.626404323472791 -12.628583350307107 -3.242144203754572 0 0 0
1166 1 -5.919772279368278 -13.742849548264578 -7.846198640224545 0 1 0
1782 1 -2.5910972088258237 -10.502556517778993 -3.872394804911794 0 0 0
1167 1 -5.2596851584954045 -13.911762177950427 -5.533021509034118 0 1 0
1337 1 -4.58142296015825 -13.947493662522948 -3.2341960919417296 0 1 0
1667 1 -1.759625466029254 -11.802021706114667 -8.39940596519023 0 0 0
1681 1 0.3152748158410432 -12.94552763131666 -8.402920279164544 0 0 0
1682 1 1.272844495110304 -10.65721730679754 -5.283130664311949 0 0 0
1792 1 -1.0781739428183545 -11.747815416802222 -6.06133067061119 0 0 0
1801 1 1.8031055519822399 -13.035940875694768 -3.7066557041970007 0 0 0
1669 1 -1.6194142164240528 -9.412139495717833 -7.754531786629674 0 0 0
1793 1 -0.5194563543372617 -11.832860479994032 -3.7142772157222996 0 0 0
1695 1 0.9089566678704148 -12.889721287101304 -5.9392372257911745 0 0 0
1684 1 0.5048966903160412 -10.612638298657014 -7.781129571848585 0 0 0
1671 1 -0.8652080430322968 -9.391480552645724 -5.430559337979561 0 0 0
1555 1 2.6660554151516926 -11.809318283839833 -7.465430338129944 0 0 0
1537 1 2.820679083890063 -9.58666556849256 -6.755131513434025 0 0 0
1396 1 6.533813368347534 -11.912633282521409 -8.877881416154816 0 0 0
1697 1 3.3546475861141865 -11.84601545780519 -5.13672695076135 0 0 0
1807 1 3.593469480363712 -9.571938210288792 -4.333626365327879 0 0 0
1551 1 5.0482534455102375 -10.696171819645661 -6.56003728654054 0 0 0
1564 1 4.74335472695347 -13.074344571159923 -7.508050193456492 0 0 0