LAMMPS data file via write_data, version 2 Aug 2023, timestep = 0, units = metal

1862 atoms
3 atom types

-14.070535364993258 14.070535364993258 xlo xhi
-13.713616731550625 13.713616731550625 ylo yhi
-14.360281153761473 14.360281153761473 zlo zhi

Masses

1 55.847
2 1.008
3 1.008

Atoms # atomic

1600 1 -10.550471825664657 -12.032772994771426 -9.788409487297086 0 0 0
1735 1 -12.062171862029308 -10.140396795520298 -10.181784215693469 0 0 0
1732 1 -13.031627398115546 -12.424394241074447 -13.680634858450306 0 0 0
1729 1 -11.268831735022506 -12.107979895525343 -12.004791303258454 0 0 0
544 1 -10.093185671108667 -9.790620254766006 -11.519498499907945 0 0 1
1739 1 -9.103147167127965 -11.26724571511011 -13.081324580066642 0 0 0
1589 1 -9.584812348435534 -9.730900974816773 -9.133513624952094 0 0 0
1727 1 -11.659389914785955 -10.084264848162087 -13.502259769279425 0 0 0
1859 1 -12.951707048591654 -12.74301132583514 -10.657514949920701 0 1 0
1183 1 -12.530638069709662 -8.535100216868045 -12.088686956097417 1 0 0
1051 1 -13.806662301830832 -10.729811865548827 -11.931998555419217 1 0 0
1733 1 -8.88991226450517 -13.186769257833008 -11.516189616602174 0 0 0
1728 1 -8.506390566026454 -8.13498249503018 -10.714708378824628 0 0 0
1599 1 -8.24988407728642 -11.839893275347372 -8.938482218936088 0 0 0
1598 1 -7.544665715240925 -10.508543018784149 -10.916511086104725 0 0 0
1586 1 -4.7972029065641575 -9.857503419025651 -9.742797801279847 0 0 0
1597 1 -5.803492211915298 -12.423322022316599 -10.378387500637764 0 0 0
1854 1 -6.726493039855847 -12.55377099419889 -12.56488900462122 0 1 0
1594 1 -4.696205158413916 -11.82855313161813 -13.879399807381423 0 0 0
1583 1 -3.376060717213999 -9.48577164598646 -13.265320357675266 0 0 0
1726 1 -5.479987079082836 -10.054577639224105 -12.227843838411328 0 0 0
1409 1 -3.5405499927198445 -11.933693049083555 -9.224593700795548 0 0 0
431 1 -7.790804749492496 -8.88221514176887 -12.812441443732013 0 0 1
1585 1 -3.87656127380688 -11.727461527346449 -11.613947464328254 0 0 0
545 1 -6.998039188158064 -10.617207886874127 -14.125671572673044 0 0 1
1573 1 -3.8137913980287816 -8.252418793632614 -11.204360319335855 0 0 0
1407 1 -2.407187492674259 -13.214529127418189 -13.109495243128839 0 0 0
1584 1 -2.45665556728774 -10.223295567335654 -10.750119924794411 0 0 0
1417 1 -1.2032842152055583 -12.425960261870319 -10.897978376385703 0 0 0
1389 1 -0.19891916229702566 -10.019056783190752 -10.299078416937773 0 0 0
1582 1 -1.1982834269788771 -10.76232486828534 -12.734820630049501 0 0 0
1405 1 1.0104232610412343 -12.060711638105015 -12.296025284683571 0 0 0
1406 1 1.0415038161255747 -11.970080492111405 -9.874744116087186 0 0 0
1581 1 1.0231123183668203 -9.75869480254129 -13.665862510442587 0 0 0
1388 1 1.9844000628218517 -9.463760137243485 -9.149940446369932 0 0 0
1571 1 -1.0926509765930312 -8.348664684659372 -12.335791646838729 0 0 0
1387 1 2.180387211030901 -10.349341775445257 -11.330686519604239 0 0 0
1817 1 2.4536936559968083 -13.324671304650318 -13.783542364347737 0 1 0
1570 1 1.0371285402441366 -8.241843315462024 -11.59868029560783 0 0 0
1385 1 3.350638331717505 -11.070295472997348 -13.351123660885156 0 0 0
1404 1 3.5301300228288994 -12.904310903098045 -11.489015013970604 0 0 0
1208 1 7.10095169535926 -10.697809465507792 -11.525947249380112 0 0 0
1386 1 4.624960388622906 -10.436549700953844 -11.033752594425941 0 0 0
1402 1 5.64465171536942 -12.437943656929239 -12.7091618463367 0 0 0
1189 1 6.664902715700329 -9.7504839327996 -9.420583825889745 0 0 0
1223 1 5.765857407522919 -12.356614224605664 -10.198255735663347 0 0 0
1568 1 3.520839405447987 -8.643936886513384 -12.694730073199617 0 0 0
1401 1 7.677109939272043 -11.319839614749226 -13.947312045423317 0 0 0
883 1 5.554500097843597 -9.92086415155454 -13.991074554766401 0 0 1
1367 1 5.6741766495984045 -8.492731409093476 -11.910777799794733 0 0 0
1210 1 3.355175030429283 -11.584956142363104 -9.011860198160658 0 0 0
1207 1 8.104916438373856 -11.769949173097796 -9.304533430553885 0 0 0
1607 1 8.174529046327176 -13.00119398594717 -11.841728637028652 0 1 0
1366 1 8.132865902610849 -8.174610578555793 -10.993665725108931 0 0 0
1365 1 8.284181124498993 -9.16694272862139 -13.261987299680126 0 0 0
1740 1 10.525775326704036 -12.224573673176584 -10.475836365524165 0 1 0
1384 1 12.036077758200904 -10.87521027072692 -12.042963637674713 0 0 0
1186 1 11.506150196906269 -9.87179279755277 -9.682282618099096 0 0 0
1187 1 9.417459713760472 -10.182552133150338 -10.596244954356333 0 0 0
1067 1 12.878590612425796 -11.858735017097016 -9.560541115095678 0 0 0
1604 1 9.736344985291964 -11.271751617104107 -12.762338758029124 0 1 0
1364 1 10.612419902904264 -8.890390055097027 -12.32532171492429 0 0 0
1065 1 13.071588642612433 -13.301145995136107 -12.140085747433561 0 0 0
1184 1 12.961241300759156 -8.583239109089817 -11.217432285557724 0 0 0
1383 1 12.654489894947822 -11.572714357751355 -14.113755496797491 0 0 0
1203 1 13.597320251035729 -9.11555252443384 -13.617826497674535 0 0 0
1611 1 10.662581834584724 -13.471252697947419 -12.691616567494433 0 1 0
1037 1 13.767173544627429 -9.440057899916418 -8.94547252309877 0 0 0
1816 1 -13.204613583277476 -7.663160980694762 -10.187995512047639 0 0 0
1734 1 -10.051094700333012 -7.700034132558829 -12.889324661124872 0 0 0
1730 1 -10.83106581962903 -7.842171689743647 -9.812714574527385 0 0 0
1721 1 -9.837068774583535 -6.159649854546549 -11.086626852037924 0 0 0
1723 1 -12.247292812461367 -5.583818389790514 -9.779305298787689 0 0 0
1814 1 -11.848739457998064 -6.171282122064386 -12.425866926909515 0 0 0
1813 1 -11.070864229855667 -3.7548763217642573 -11.272388439691161 0 0 0
1135 1 -13.601079112953968 -3.2955179353813087 -10.066783568273058 1 0 0
1811 1 -9.084909773807254 -4.937286047159709 -12.895211966849075 0 0 0
1812 1 -11.431940207223414 -3.7098097883803938 -13.477795557134943 0 0 0
1815 1 -13.531970722843077 -4.450355839946875 -12.363951124761092 0 0 0
1712 1 -8.821991344937144 -3.5048785000976377 -10.622676243702573 0 0 0
1714 1 -11.390576281368094 -2.9250084924141984 -9.082207723657405 0 0 0
1722 1 -10.114195467899902 -5.015893823257498 -8.933330520818874 0 0 0
1575 1 -6.188950108286294 -7.995056296789906 -10.395398173769154 0 0 0
1587 1 -5.614717779400307 -7.85763829602897 -13.356886720785463 0 0 0
1720 1 -7.565637900815913 -5.6782632181566886 -10.127956365591437 0 0 0
1719 1 -7.3342909939689855 -6.4230565197885445 -12.217086046230138 0 0 0
1560 1 -5.288186544425656 -5.093902720829885 -9.312159376461421 0 0 0
1708 1 -4.410943286424727 -5.11779890233068 -13.326545403942328 0 0 0
1710 1 -6.345985081994209 -4.086876626745729 -11.815982537786457 0 0 0
1718 1 -5.09738171112874 -6.228191497004021 -11.42895493777582 0 0 0
1709 1 -4.064047860276975 -3.7335883986139393 -11.006903725050623 0 0 0
1711 1 -6.682265576234764 -2.984933240586768 -9.722485816746701 0 0 0
1717 1 -7.087590476087619 -4.145580835731829 -14.069672284640948 0 0 0
1574 1 -4.027831241694781 -7.230301196898212 -9.06499821085094 0 0 0
1696 1 -3.237303632604057 -2.544920583808887 -12.745789739123492 0 0 0
421 1 -8.412039707502608 -6.911755182392516 -14.257872102133007 0 0 1
1558 1 -2.8232901045875387 -5.80998202872123 -10.675077988847505 0 0 0
1716 1 -2.5805417161572333 -6.763530892781757 -12.998272394528334 0 0 0
1572 1 -1.5466122368914608 -7.758237343666484 -10.107172328618255 0 0 0
1556 1 -0.2595568828842314 -6.040992484193083 -11.771203020895008 0 0 0
1557 1 -0.5524477620490558 -5.125014806225252 -9.661801862451991 0 0 0
1707 1 -1.6965329726438156 -4.2641121134909845 -12.21444244757533 0 0 0
1371 1 0.7189903225458227 -7.324728311030715 -9.264682633763902 0 0 0
1554 1 1.995065141981069 -6.932184508182442 -13.455037374290296 0 0 0
1706 1 0.42638108208324965 -3.851648369553189 -13.657445875430373 0 0 0
1540 1 0.6325939443839115 -3.7029287225887266 -11.260173894496907 0 0 0
1542 1 -1.8295471331609239 -3.0514959636030117 -10.009120713588882 0 0 0
636 1 -0.23329345677593238 -6.0948849287606315 -14.081590890870665 0 0 1
1555 1 1.9999416470760636 -5.849767911926547 -10.925178024478612 0 0 0
1541 1 0.3948793727040609 -2.6030919195159328 -9.092375571441583 0 0 0
1350 1 1.7593531131985287 -4.616367563716732 -8.843321729881819 0 0 0
1369 1 3.234281048391395 -8.024720488829235 -10.513769512690347 0 0 0
1539 1 2.910199893755429 -3.2908460614479775 -10.629284407886288 0 0 0
1538 1 3.030908486967622 -4.325861095105331 -12.918322636200177 0 0 0
1346 1 6.712284489778824 -6.215634199026626 -11.53250693229551 0 0 0
1348 1 4.305486610953061 -5.3341871796347355 -10.212426460713587 0 0 0
1368 1 5.525957988415485 -7.503019674481072 -9.753227479593601 0 0 0
1552 1 6.7268281681689786 -7.3815382703818315 -13.816801340913967 0 0 0
1553 1 4.467431138257904 -6.29341601142655 -12.34645522357214 0 0 0
1537 1 5.284069414095619 -3.9638100211526126 -11.884320707250136 0 0 0
1326 1 7.676077139028635 -3.502344539480637 -10.948401413493217 0 0 0
1535 1 7.739191459344923 -4.617041066756485 -13.109042568204124 0 0 0
1536 1 5.532524237029232 -3.803413309321817 -14.161895149326082 0 0 0
1347 1 6.529612533675117 -5.006907307906461 -9.385269160674508 0 0 0
1328 1 5.101651379924068 -2.822199300228064 -9.623390577717732 0 0 0
1170 1 7.790478994238416 -7.104099725174231 -8.855297972586374 0 0 0
1168 1 10.354317297952445 -7.725175872450652 -10.047587292472377 0 0 0
1345 1 8.873606313625995 -5.685008042097323 -10.59222120304956 0 0 0
1152 1 11.217068572895815 -5.082396896573863 -9.6345816693049 0 0 0
1343 1 11.458722595832452 -6.318352489774467 -11.967777421868307 0 0 0
1344 1 9.267294503039626 -6.717814247809102 -12.71561774865765 0 0 0
1323 1 12.45559973902056 -3.5261436553830823 -11.339601754221157 0 0 0
1324 1 10.160504224322171 -4.3172404519822205 -11.922845506311152 0 0 0
1325 1 9.895647951349623 -3.037343522624189 -10.018977283028363 0 0 0
1167 1 12.556297318705976 -7.269844105369029 -8.99511353945976 0 0 0
1205 1 12.441445878986713 -5.056947717654239 -13.782970804628672 0 0 0
1150 1 13.546848900110977 -5.860025698749296 -10.709328212427005 0 0 0
1185 1 11.640123818871526 -2.7774119811918023 -13.512093523122806 0 0 0
1137 1 11.985277612521362 -2.6028670127146345 -8.88486844234549 0 0 0
900 1 11.390642110571758 -7.5214258094265345 -14.284852273021727 0 0 1
1166 1 14.004111025242906 -6.821206045707644 -12.907638690632881 0 0 0
319 1 14.020777621785186 -2.559376835744951 -13.807450219195998 -1 0 1
1807 1 -10.391171512849873 -1.3064676119080207 -13.163658747991834 0 0 0
1808 1 -10.254175922683027 -1.5168757063050897 -10.854692781502367 0 0 0
1809 1 -12.58111737843857 -2.0292124837041055 -11.70852162852589 0 0 0
1810 1 -12.585705881808476 -0.7057114191963603 -9.56130626907834 0 0 0
1801 1 -9.32175589442139 1.1826998598041438 -12.604297307539788 0 0 0
1802 1 -9.323783421445299 1.0616513361980466 -10.300335551920465 0 0 0
1803 1 -11.600205111911267 0.5124257367501013 -11.540749810010379 0 0 0
187 1 -12.978721284297979 -0.03149327686579895 -13.341849402099784 0 0 1
1849 1 -11.71702405179904 2.450449391199024 -13.105457657383475 0 0 0
1804 1 -11.663702893331797 1.7154666202031876 -8.924957253924148 0 0 0
1286 1 -13.839621142969083 1.2303439230435487 -9.863872782792207 1 0 0
1851 1 -13.822430999149312 1.764873866209781 -12.053218986423452 0 0 0
1794 1 -10.580971961025563 3.0478368605840043 -10.67981691174126 0 0 0
1544 1 -4.362614076980295 -2.4726704883362025 -8.965620665008306 0 0 0
1799 1 -8.255204817943689 -0.36517547355302327 -13.9291223935929 0 0 0
1806 1 -7.977791399258787 -2.2750204207924867 -12.446441186534585 0 0 0
1700 1 -7.90063454247335 -0.9734797407570905 -10.067065860871487 0 0 0
1698 1 -5.355567037555913 -1.46511403409262 -11.375040546521113 0 0 0
1805 1 -5.858470901715647 -1.8253698133170193 -13.545886043520667 0 0 0
1685 1 -4.357361771005003 1.1237237378602742 -10.88673266409717 0 0 0
1798 1 -4.748880304665356 0.5592113425988252 -13.103419907360063 0 0 0
1800 1 -6.9271499814906985 0.31402621282382803 -11.90791083481427 0 0 0
1687 1 -7.048717065659793 1.8101459727178177 -9.583743705280774 0 0 0
176 1 -6.951904530104681 2.0744092927945186 -13.500144436814969 0 0 1
1699 1 -5.825531410482768 -0.2185790091004396 -9.30601142352199 0 0 0
1697 1 -3.197007046790821 -1.0712873143215695 -10.492777513496241 0 0 0
1790 1 -5.868446007572356 2.834582605775859 -11.537306470140152 0 0 0
1686 1 -4.77820097724106 2.11996112935328 -8.774591374773042 0 0 0
1693 1 1.5662899499688905 -2.089018373027317 -12.813773354249589 0 0 0
1683 1 -2.1696109387487628 0.11764963026509179 -12.383003681519105 0 0 0
1684 1 -2.311929067901236 1.5274952549919174 -10.022615450968015 0 0 0
1695 1 -0.7935375894097518 -1.7469797346692761 -11.734321422063953 0 0 0
1523 1 1.4781598825754827 -1.1842955615105382 -10.781018267544683 0 0 0
1525 1 -1.005234741145296 -0.46555965598363613 -9.512426536820982 0 0 0
1682 1 0.10418787938227503 0.9258214416885338 -11.315178812186549 0 0 0
1681 1 0.24097058004314142 0.18021815639473715 -13.644091688086654 0 0 0
1788 1 -2.2424122331862932 1.6638364482097643 -14.130727192477066 0 0 0
1505 1 -0.14379399447743957 2.095253896357546 -9.13104152733255 0 0 0
1694 1 -1.1247214993565535 -1.9747473802740139 -14.02746988345865 0 0 0
1669 1 -1.4042710468331645 2.961372332293072 -11.71398592499336 0 0 0
1667 1 1.131745444105702 2.733719064214851 -13.182689695379224 0 0 0
1503 1 2.495744135303969 1.3403536494367607 -10.327406092733327 0 0 0
1680 1 2.5742197760565304 0.2849966752850701 -12.609353083343931 0 0 0
1524 1 1.238509218228847 -0.022450178138221588 -8.765679526160826 0 0 0
1519 1 6.615747032772315 -1.8621996581778344 -13.312246278045745 0 0 0
1520 1 6.399335567992189 -1.4508170452036122 -11.120696449458334 0 0 0
1521 1 4.1165250252748855 -1.838865502357475 -12.386639611277731 0 0 0
1499 1 7.311637255381253 0.38694872209818776 -12.745075396604284 0 0 0
1500 1 7.271980089952791 1.214049031237053 -10.559177898289608 0 0 0
1501 1 4.9018443653785475 0.6440131072405268 -11.449350498513848 0 0 0
1522 1 3.8078918751184503 -0.7668183229683745 -9.969083051527114 0 0 0
1502 1 4.729509116691933 1.9226870136034133 -9.39794416205001 0 0 0
1679 1 4.721033007663621 -0.026639950640342747 -13.915021224930916 0 0 0
1666 1 3.492281274112475 2.718106457021582 -11.955155896582665 0 0 0
1664 1 5.710652159589859 2.5773897379016386 -13.274664495122227 0 0 0
1309 1 5.976077193395131 -0.09946307125494158 -9.142780676197196 0 0 0
1479 1 8.112096938859725 2.627031110276258 -12.266451579335095 0 0 0
1646 1 9.967509631772288 2.16613704385564 -13.875970453921918 0 0 0
1307 1 8.537004548135716 -0.7890875296753954 -10.368126219404889 0 0 0
1517 1 11.064619101092823 -0.5774359583654949 -13.750035223119626 0 0 0
1518 1 8.96157981635292 -2.2176497900467673 -12.809647632278388 0 0 0
1305 1 11.021253444346879 -1.4380837947541014 -11.481211458784315 0 0 0
1287 1 11.981119192603934 0.9340394809309505 -10.94193045287048 0 0 0
1498 1 9.67384686014524 0.5054496009995564 -11.96690809739088 0 0 0
1289 1 9.335087574155256 1.780115291744755 -9.873144717142022 0 0 0
1304 1 13.243442546042932 -1.3204787891089858 -10.268528440006676 0 0 0
216 1 13.182848119298523 -0.7256822604063906 -12.457889243385251 -1 0 1
853 1 12.504295246170575 1.5367458771295617 -13.511848297301237 0 0 1
1306 1 10.761093921837826 -0.4143134028801647 -9.3335109713162 0 0 0
1478 1 10.727688848626688 2.9468593832261387 -11.482750608878348 0 0 0
103 1 -9.639458847993005 3.1565591422602868 -14.140215026184197 0 0 1
1303 1 -12.664981127204861 4.232484161961294 -11.754048531858437 1 0 0
1784 1 -9.766912254269059 5.914063105688166 -10.10013075565768 0 0 0
1845 1 -10.306677472710911 5.004729149629133 -12.493288438138183 0 0 0
1847 1 -11.866030789595404 6.473380958118794 -11.301211791765581 0 0 0
1796 1 -12.874084943375507 3.8687228893545313 -9.535367689111219 0 0 0
1839 1 -9.01787581739766 7.36976003952765 -12.004451266557453 0 0 0
1846 1 -12.7279338717598 6.416029728731063 -13.323628595933512 0 0 0
1838 1 -10.567608688337417 6.966786110749771 -13.860204895576326 0 0 0
1842 1 -13.541836792628512 8.286427114507715 -11.522953442164965 0 0 0
1841 1 -11.049215813476563 8.429661073067146 -10.409703371078159 0 0 0
1773 1 -8.778434095797898 8.436813039689829 -9.533622022535098 0 0 0
1843 1 -13.429588855480409 8.582768830637692 -9.315933798991454 0 0 0
1786 1 -12.122701259175448 6.7118019373504705 -8.83389253959131 0 0 0
1793 1 -8.515259801113235 3.6420181763846653 -9.698088507077971 0 0 0
1792 1 -8.354069091002875 3.2403281729220463 -11.992662282703735 0 0 0
1829 1 -8.173415586055421 5.742113040169203 -13.567748196336744 0 0 0
1789 1 -3.6110866577025345 3.29267119844174 -12.66418095273258 0 0 0
1671 1 -3.7566786702650496 3.6756133255791763 -10.398190333405955 0 0 0
1791 1 -7.473086814397757 5.367768518088832 -11.1840031685602 0 0 0
1780 1 -5.982852466594432 4.635023011833473 -13.09234393601406 0 0 0
1781 1 -5.126440426474737 5.556021377733371 -10.735195855481733 0 0 0
1769 1 -4.449412367867547 7.2621501714299885 -12.317765852146088 0 0 0
1770 1 -4.217108265757787 8.236244216228863 -10.05259815393222 0 0 0
1778 1 -3.70010400384764 5.472166652389573 -13.962856074146407 0 0 0
1783 1 -7.497529417135077 6.421466024602582 -9.117184679232778 0 0 0
1771 1 -6.441915290466203 7.858557566896815 -10.953035350077744 0 0 0
1673 1 -6.234149831609549 4.230546635429851 -9.042325526179933 0 0 0
1822 1 -6.926356108632793 8.41200128673171 -13.155876844130642 0 0 0
1654 1 -3.034939312149561 6.2584235773328505 -9.820431171902454 0 0 0
1779 1 -2.3797029466215243 5.562545977860802 -11.999846636112647 0 0 0
1668 1 1.0998119509997597 3.503584104229917 -10.708350306015118 0 0 0
1652 1 -0.19170237832603654 5.646634468345818 -11.1443312735692 0 0 0
1777 1 -1.0550854408892363 4.25415115812312 -13.687972599241615 0 0 0
1651 1 2.0851739943514396 6.047196376535828 -10.054223177012059 0 0 0
1766 1 0.08235655337172787 6.999424547350122 -12.977554373185198 0 0 0
1670 1 -1.5859723603812057 4.2480622539167054 -9.531349272844626 0 0 0
1650 1 2.212054342524148 5.156409747053063 -12.436342676936905 0 0 0
1634 1 0.6938556418282626 8.083054852564212 -10.687321613466672 0 0 0
1765 1 2.121486103251506 7.532497539892292 -14.00556840772778 0 0 0
1767 1 -2.3463154119238308 8.00230106453982 -13.529192005442816 0 0 0
1768 1 -1.7636402354606684 7.666362778248699 -11.330931766249028 0 0 0
1653 1 -0.6087476160996808 6.69463035638446 -8.873954222583984 0 0 0
1481 1 5.859115476969816 3.126957817691336 -11.055352966143442 0 0 0
1633 1 2.979213616621834 8.545769927786294 -9.562311233104289 0 0 0
1632 1 2.907177174785172 7.641026093105252 -11.776851427244072 0 0 0
1483 1 3.3421401198791614 3.870187224102116 -9.846173144292175 0 0 0
1461 1 6.867521217634479 5.87927449901637 -10.596376196470999 0 0 0
1647 1 6.952599930250429 5.060387140831866 -12.804943509923614 0 0 0
1649 1 4.4460503112811125 5.296651676139371 -11.49727033534073 0 0 0
1630 1 4.6085596411041045 6.4745507355984895 -13.41369659708807 0 0 0
1631 1 5.435526088166032 7.8290157946538255 -11.100731812744414 0 0 0
1463 1 4.309588508712142 6.510782399966823 -9.437053924747675 0 0 0
1648 1 3.610507367232291 3.792522161709071 -14.082572872821455 0 0 0
1441 1 7.602023126857709 8.41504687107482 -9.967905874474969 0 0 0
1629 1 8.03827879997484 7.447652054918281 -12.319656376602065 0 0 0
1480 1 8.036210966266633 3.763393481357573 -10.21240369322188 0 0 0
1482 1 5.560980858751577 4.4094476610455065 -8.976053385831399 0 0 0
1477 1 11.433154398929986 4.284711928025379 -13.516051413987983 0 0 0
1270 1 13.073664841629085 3.478087301967344 -10.574539306745892 0 0 0
1459 1 9.290421178326 4.927412797669136 -11.92366092711965 0 0 0
1460 1 9.127617457372768 6.299803850201611 -9.772438207488257 0 0 0
1458 1 11.389266875056038 5.396740861147071 -10.634850440424334 0 0 0
1438 1 12.56129229760672 7.858790581881378 -10.352498666820809 0 0 0
1456 1 12.997543909968421 7.664648371653906 -13.336589733681723 0 0 0
848 1 11.042974596285482 6.59865612835876 -12.646532509200455 0 0 1
1272 1 10.19286604085504 4.114753500143189 -9.144251426788184 0 0 0
1476 1 13.34863480339773 5.742724636167784 -11.947187583139018 0 0 0
1627 1 9.159031845720488 5.8997533322140985 -14.018826500007247 0 0 0
1605 1 10.202744120898497 8.065064502624386 -11.124791266688803 0 0 0
1285 1 13.861194199289244 3.783009103473864 -13.344806970580835 0 0 0
1256 1 13.928146429455829 6.041264998660283 -9.75995876284102 0 0 0
1439 1 10.22755904158014 8.6622847236625 -13.603760014678246 0 0 0
1736 1 -10.207627720662652 13.612037866288178 -13.467056252121472 0 -1 0
24 1 -11.351961352034312 8.781651957913082 -12.613820329222419 0 0 1
1731 1 -9.998671341642744 11.535491030140784 -12.00766531191855 0 -1 0
1858 1 -12.362542582539598 13.032362843258069 -12.64725946204327 0 0 0
1825 1 -9.072018960277259 13.00953128380801 -9.435280292587176 0 0 0
1832 1 -10.124611253043536 10.7678459943025 -9.875116786298356 0 0 0
1834 1 -12.205196270291768 10.476391807877372 -11.113926079522935 0 0 0
1857 1 -11.2754320600735 12.87323782079888 -10.481312440392008 0 0 0
82 1 -9.432697069434338 9.696459725724859 -13.553154526938274 0 0 1
1856 1 -11.692431141853154 11.033746678557316 -14.01756548293853 0 0 0
2 1 -13.664993547460236 10.276267348683744 -12.81039794207124 0 0 1
1827 1 -13.861891027978995 12.305772102105253 -11.165178704195764 0 0 0
1421 1 -13.945444804553889 13.292456125447393 -8.989492615096097 0 -1 0
1595 1 -4.648166520339993 13.28210397749058 -12.18456383195461 0 -1 0
1823 1 -8.167676013021119 12.37893901767407 -13.051796818826778 0 0 0
1831 1 -7.852566262646869 10.001408704457853 -11.43041238463319 0 0 0
1818 1 -5.83241216338766 11.07565754296388 -12.823443434844163 0 0 0
1596 1 -6.812508125703678 12.398040671946768 -11.025747699851552 0 -1 0
1757 1 -5.306416263830457 10.422933210186025 -10.464316146272337 0 0 0
1824 1 -4.567238687295502 12.976876779245822 -9.859619145437557 0 0 0
1820 1 -3.4469677615075316 11.704221174633206 -13.42302984393748 0 0 0
1755 1 -3.299257620479697 9.672611559300984 -11.994314206630287 0 0 0
1759 1 -7.903536523036414 11.077464080039674 -9.186872801940078 0 0 0
1828 1 -4.673035117606153 9.208398140275301 -13.972769804143537 0 0 0
1821 1 -5.969655719709248 13.159499190458652 -14.095475120961185 0 0 0
1756 1 -3.1394521408416303 10.796221681828507 -9.586294548889033 0 0 0
1772 1 -6.557378351792223 9.109445878532307 -8.862448871084329 0 0 0
1636 1 -1.8756433388192715 8.793027797047747 -9.28575561114397 0 0 0
1819 1 0.020517485416350567 13.163658166844284 -12.841831203818414 0 0 0
1747 1 -2.0482590161355567 12.340743578480785 -11.430764569746954 0 0 0
1753 1 -1.1734791801433921 10.629373176230649 -13.105519947404224 0 0 0
1754 1 -0.7705793001949797 10.104313641290661 -10.878825278822356 0 0 0
1745 1 0.17234997102901595 12.892846993551322 -10.329956139338922 0 0 0
1752 1 1.6417181215068695 10.604007345082936 -10.033218083808617 0 0 0
1751 1 1.3173927188766115 9.48699370520592 -12.574138604789661 0 0 0
344 1 1.1548073043670861 11.440974347929393 -14.121691155207344 0 0 1
1749 1 -2.238508481709742 13.425308878166598 -9.033318357206623 0 0 0
1224 1 2.382465741068277 13.308698293212922 -9.642066677791211 0 -1 0
1743 1 2.369294128297039 11.970370779558552 -11.993555998812415 0 0 0
1741 1 6.956781711162428 13.672941152294582 -14.244826000032674 0 0 0
1615 1 6.05032090834527 9.221107031050055 -12.97726379889958 0 0 0
1616 1 6.266251825986284 10.39630962609178 -10.407383745296837 0 0 0
1617 1 3.977993710256431 10.058513787434281 -11.121651091452831 0 0 0
1742 1 4.601549842344312 12.688489482985423 -13.127904078095215 0 0 0
1744 1 4.843992630841019 12.494516426220192 -10.790890865652006 0 0 0
1750 1 3.559714145155958 10.062811001674193 -13.579365338886527 0 0 0
1609 1 7.1224488180662675 13.013741646185652 -9.895603923408324 0 0 0
1614 1 6.985169936477799 11.887995456875439 -12.33783250090142 0 0 0
1618 1 3.788325391212968 11.133138997560463 -9.027680380301561 0 0 0
1613 1 8.073793778549906 9.637964788183156 -13.963156904043943 0 0 0
1440 1 9.926621838246739 8.772492855995962 -8.947672962488545 0 0 0
1603 1 8.696248696167661 9.995721103997253 -11.603717004087244 0 0 0
1430 1 8.630999126840809 11.145156730594502 -9.491720027721087 0 0 0
1425 1 11.89595192869984 12.995710503617572 -10.127038396084377 0 0 0
1606 1 9.559073169914932 12.457329541984128 -11.15429080547375 0 0 0
1612 1 10.413513034560225 10.889729979200697 -12.951123437943751 0 0 0
1206 1 8.98957443109951 12.485287231009034 -13.678969703526857 0 -1 0
1428 1 11.020286252312506 10.535578477173454 -10.427081128409966 0 0 0
1426 1 12.280967486097762 9.42729658667181 -12.19032095566331 0 0 0
25 1 12.268015097236898 11.8819404073897 -12.395427521223919 -1 0 1
1427 1 13.436463997022535 10.615458365372268 -9.80886858081184 0 0 0
1608 1 9.388646118932623 13.590615486666751 -8.844259982460628 0 0 0
1861 1 14.048736004775698 12.277038420324581 -14.20767832172419 -1 0 0
1602 1 -12.995731782386656 -11.470464673893 -8.622679875869398 0 0 0
1601 1 -10.893525521520342 -10.945889978265086 -7.5966059903180305 0 0 0
1415 1 -11.350875316612445 -9.912157109240212 -5.384413264910258 0 0 0
1422 1 -9.699999966870148 -11.906805611627444 -5.059549035999259 0 0 0
1423 1 -12.083163748001402 -12.52889885996475 -5.9668734140723885 0 0 0
1591 1 -12.175076572586944 -8.918906349574321 -7.8610050938582745 0 0 0
1826 1 -9.569604803772656 -13.205113118800192 -7.198559524329673 0 1 0
965 1 -13.33403040643232 -10.428288632149563 -6.417761879435854 1 0 0
966 1 -13.601001145280321 -9.145479417454116 -4.236381614734686 1 0 0
1590 1 -9.878000693067907 -8.512127062253231 -6.9869841696186645 0 0 0
1424 1 -12.245246661709286 -11.291482186410157 -3.7258545697151604 0 0 0
1414 1 -8.824709451928213 -9.388005271223095 -4.6246058524024125 0 0 0
1764 1 -10.889702546482274 -13.385739287691731 -3.395974454132455 0 1 0
1855 1 -11.69921825558672 -13.545922324527206 -8.26089898024178 0 1 0
1413 1 -8.55436198847237 -10.620882809335725 -6.802580312378528 0 0 0
1416 1 -11.43228486774015 -8.67115268796405 -3.2053528512382456 0 0 0
1588 1 -7.216299089494646 -9.308593553741439 -8.47052870142442 0 0 0
1232 1 -7.509563164778224 -11.510661069396695 -4.209463311279414 0 0 0
1420 1 -7.225952517332417 -12.708123025859543 -6.28640887531086 0 0 0
1411 1 -6.0709645659661104 -11.218383231945426 -8.080762191415094 0 0 0
1230 1 -4.936632653475687 -12.157213977361502 -5.446053042799026 0 0 0
1410 1 -3.7860060599881997 -10.778739438421777 -7.143600335254378 0 0 0
1412 1 -6.354226871687613 -10.135782231355181 -5.892566158833214 0 0 0
1216 1 -4.006461608365656 -9.551026347164207 -5.006334032613147 0 0 0
1393 1 -5.176783373349531 -8.69734138809705 -7.421409677033145 0 0 0
1418 1 -4.647247293064048 -13.247932204977804 -7.576223344016953 0 0 0
1218 1 -6.4579960795319655 -9.03319901477678 -3.7153400666313114 0 0 0
1237 1 -6.1353379683368585 -13.490015856599072 -3.8290715847239625 0 0 0
1231 1 -5.194484896626836 -11.058928676643356 -3.3352169505412803 0 0 0
1391 1 -2.711234167290673 -9.33178774779942 -8.614285874457615 0 0 0
1229 1 -2.8475350748364185 -11.695612137899326 -4.5672335433132805 0 0 0
1408 1 -1.3152156864168223 -11.311161741629899 -8.46553908153034 0 0 0
1228 1 -2.484041158087214 -12.703696756350233 -6.765231327617687 0 0 0
1226 1 -0.25564104454576686 -12.288861423632243 -5.9234431223169075 0 0 0
1214 1 -1.6234525786728202 -10.291630076416373 -6.222156681316665 0 0 0
1073 1 1.972292794184849 -11.763081377881731 -4.963207929910519 0 0 0
1212 1 0.9170696048252154 -10.830713824591575 -7.4935749089624455 0 0 0
1213 1 0.5603685232766402 -9.624195544002909 -5.216394471538223 0 0 0
1390 1 -0.43798321502007553 -8.812234509547546 -7.697678804085826 0 0 0
1215 1 -1.8784705927682293 -9.05122332057541 -4.0895313453485045 0 0 0
1227 1 -0.5558505600183778 -11.116145485724578 -3.725796614286553 0 0 0
1225 1 2.2156612798857793 -13.0920620206875 -7.236312743621621 0 0 0
1082 1 1.10657338927159 -13.220495767931594 -3.421224385560368 0 0 0
1193 1 1.8043015333668144 -8.312720435841204 -6.891694327984479 0 0 0
1746 1 -0.06348999677899414 -13.438406382160201 -8.190091822278248 0 1 0
1083 1 -1.457136780264202 -13.638556861615703 -4.212807467869084 0 0 0
1059 1 3.0436257976003596 -9.162251648401568 -4.313794592814746 0 0 0
1211 1 3.1617537724817595 -10.493915636906035 -6.6972487329976005 0 0 0
1191 1 4.367980899284142 -9.145439024816234 -8.397057556607386 0 0 0
1069 1 6.982542360209237 -13.209280215502826 -7.592129192394811 0 0 0
1209 1 5.564531709078949 -11.310249914111157 -7.883012018620701 0 0 0
1057 1 5.395679811651302 -10.070271458661228 -5.751708229164855 0 0 0
1070 1 6.750869040024149 -11.936633214503866 -5.3431831555846045 0 0 0
1071 1 4.393112952722252 -12.58466170458843 -6.34903099145666 0 0 0
1072 1 4.302512061654362 -11.365799540661715 -4.1105215750275725 0 0 0
1056 1 7.608031713532473 -9.426967105708664 -4.897290638710361 0 0 0
1190 1 6.481336797894635 -8.503504464886046 -7.31817287480672 0 0 0
1055 1 7.7033791547457255 -10.648111654914093 -7.068718159274139 0 0 0
1058 1 5.247084144992648 -8.738708434379596 -3.5266635856774915 0 0 0
988 1 5.677153164455653 -13.474474970268654 -3.840273194709905 0 0 0
1188 1 9.051780094161607 -9.05331616608228 -8.534973943861846 0 0 0
1053 1 10.182319115475174 -11.182438383677047 -8.231627109497081 0 0 0
979 1 8.988458476905926 -11.533559668829454 -4.43426407151874 0 0 0
977 1 11.55798384803493 -12.123692204220063 -5.734164626047603 0 0 0
1052 1 12.504188219768 -10.802552522254466 -7.456343742578473 0 0 0
1054 1 10.026352845653918 -10.045735675556303 -6.1073793496504045 0 0 0
1068 1 9.314578463365688 -12.751640801370868 -6.583384421137894 0 0 0
967 1 12.38566108299755 -9.685049117832587 -5.08663662103263 0 0 0
1039 1 11.325936626145072 -8.58149810731021 -7.673140049966232 0 0 0
969 1 9.78484754678884 -8.978040679042314 -3.896426275769688 0 0 0
1066 1 11.769213866335349 -13.165736384455311 -7.9524133736612495 0 0 0
978 1 11.283817860953768 -10.99379945663626 -3.418061037417143 0 0 0
976 1 13.708031503586291 -11.799599676089471 -4.705056067854578 0 0 0