LAMMPS data file via write_data, version 2 Aug 2023, timestep = 0, units = metal

1862 atoms
3 atom types

-13.95805536271901 13.95805536271901 xlo xhi
-14.371433862212953 14.371433862212953 ylo yhi
-13.622629619893676 13.622629619893676 zlo zhi

Masses

1 55.847
2 1.008
3 1.008

Atoms # atomic

1011 1 -10.154844493995071 -11.056348794999144 -11.23222909950189 0 0 0
1013 1 -9.8583619754797 -13.613799653980598 -11.547027058570801 0 0 0
1014 1 -10.8987133753271 -10.643596865543937 -8.936658397873602 0 0 0
1121 1 -12.186127204616945 -12.337669681119483 -10.792227094718763 0 0 0
1007 1 -11.929369275730938 -10.227365243566098 -12.724513583594144 0 0 0
1120 1 -12.671099141383914 -9.80626991321445 -10.477747559458958 0 0 0
1788 1 -10.472726004687853 -13.169081291050754 -9.175939318789425 0 1 0
23 1 -11.569976563360505 -12.644907449100858 -13.124928506576891 0 0 1
1850 1 -13.062089336023034 -11.973008469651665 -8.514842085009557 0 1 0
1015 1 -13.674978833656164 -13.888123041406281 -12.729357795702743 0 0 0
1101 1 -8.904269472378608 -9.39037048091854 -9.177396461080235 0 0 0
58 1 -9.914652208756305 -9.084179089545072 -13.24528337330749 0 0 1
1117 1 -13.570960618323227 -9.305211830064447 -8.298231557019475 0 0 0
1012 1 -9.391449332315755 -11.4410953330005 -13.528080213298429 0 0 0
1010 1 -8.368642634251165 -12.055025018006734 -9.631349897540984 0 0 0
1800 1 -12.5940903430036 -14.35663965342038 -8.863422195135477 0 1 0
1107 1 -8.207010865973736 -9.741539893500693 -11.481265829803714 0 0 0
1009 1 -7.781602091618069 -12.188848847374686 -11.851185597337572 0 0 0
999 1 -5.925153848231851 -13.07448305496279 -10.328400254937126 0 0 0
1002 1 -5.607369832972024 -11.121365606484229 -12.179354191478925 0 0 0
997 1 -3.4703533548893013 -9.874405648336186 -12.567062198067916 0 0 0
1091 1 -4.15106341346719 -9.49726483223957 -10.294454440003506 0 0 0
1774 1 -6.268206279841151 -10.568626071364562 -9.905736592052685 0 1 0
1674 1 -5.033080463344472 -13.560373519984978 -12.644310344674194 0 1 0
1001 1 -4.182684760633833 -13.97699652531833 -8.539645566769643 0 0 0
1742 1 -3.792303046878951 -11.834220587973629 -10.589632062410503 0 1 0
1003 1 -2.868499556346512 -12.33570597230837 -12.779756570909841 0 0 0
1100 1 -4.6526876459781175 -11.41768103964332 -8.388466966442037 0 0 0
1787 1 -7.934251232994149 -14.323526661706719 -9.848980480302869 0 1 0
951 1 -3.4005218613128303 -14.30621899468289 -10.847521319783691 0 0 0
1090 1 -5.036763136182602 -9.010343920590946 -7.94589290076343 0 0 0
56 1 -5.969962594972754 -8.64244136846402 -11.933169115594481 0 0 1
1081 1 -2.525374094757632 -10.328491817836017 -8.667535028479652 0 0 0
950 1 -1.1807372409523431 -13.124764282601591 -11.264318679154963 0 0 0
998 1 0.25283207508841876 -9.48508720910198 -11.255323355988944 0 0 0
949 1 0.8002617549516344 -11.862735350744456 -11.71689053568291 0 0 0
987 1 2.02969348772538 -10.364952369075418 -9.750429948320054 0 0 0
995 1 0.4707490053507648 -13.992162114501133 -9.623449815465417 0 0 0
994 1 0.05804947220859091 -11.55710608698135 -9.456510210002374 0 0 0
1079 1 -1.7604503155137206 -10.815596248047713 -10.996411764947887 0 0 0
1005 1 -2.0485069242258405 -12.784520952935607 -8.94957010937516 0 0 0
43 1 -0.9807449140234876 -11.112021192785836 -13.345019443315149 0 0 1
1078 1 -0.4783721534426295 -9.1785136845033 -9.151936013825894 0 0 0
947 1 2.626896093976006 -12.651932578060329 -10.000284181238973 0 0 0
1489 1 1.2509923359513664 -14.255877174786052 -11.951231429724091 0 1 0
631 1 -0.5081846914488288 -13.42930100890887 -13.551517818210367 0 1 1
993 1 2.848168775003243 -10.656737265521034 -12.169365313219572 0 0 0
948 1 3.30778325552137 -13.06476494750113 -12.2658332925175 0 0 0
945 1 5.289225100985957 -11.818974211489717 -12.681095952023785 0 0 0
944 1 6.26051589035214 -12.509850066475252 -8.824972492520494 0 0 0
946 1 7.168122457378493 -12.672036794443619 -11.186312523448429 0 0 0
979 1 6.897247385214444 -10.291162234671518 -10.686520503656821 0 0 0
986 1 4.569983390942022 -11.35805301584156 -10.457038450513256 0 0 0
984 1 5.071224021815214 -9.448735357957366 -12.35302766741487 0 0 0
1617 1 5.139145166412179 -13.864610497371668 -10.571639566661924 0 1 0
1054 1 5.859383054157023 -10.025666386890755 -8.58673974216591 0 0 0
942 1 7.430864666072315 -10.80809415746396 -13.097240450457745 0 0 0
1732 1 4.24809620900499 -13.627053351514087 -8.330828331188226 0 1 0
937 1 7.951390736763761 -13.0872535104662 -13.335163541448471 0 0 0
978 1 4.124317502567957 -8.938148510847405 -10.098040064474777 0 0 0
609 1 5.925913726331986 -14.20768989320983 -13.029644972627125 0 1 1
988 1 3.8541610356459817 -11.155514232718227 -8.133101865704788 0 0 0
970 1 8.409441361508966 -11.276612107578915 -9.07712193108174 0 0 0
969 1 7.948802919880849 -8.755944796305982 -9.025260006660238 0 0 0
933 1 13.948598900002347 -11.44807251185588 -12.438146067500492 0 0 0
943 1 8.980642073797627 -13.542163337569248 -9.272721158653997 0 0 0
32 1 9.183505093398841 -11.446350192125836 -11.418949356559988 0 0 1
934 1 11.349548067281093 -10.210228262115658 -11.73036390979987 0 0 0
940 1 9.697844141139575 -13.793968093482064 -11.767650595189897 0 0 0
936 1 10.973970276513592 -12.228524981288164 -9.940954016144053 0 0 0
961 1 9.925914361847463 -9.734429700136976 -9.770448012430947 0 0 0
935 1 13.26732292375579 -11.026298066115931 -10.177768516528921 0 0 0
931 1 11.867151084314022 -12.614156679064884 -12.152677070473505 0 0 0
1579 1 13.503910118990392 -13.441853741886938 -10.430746573338787 0 1 0
959 1 13.466173610862034 -9.044046334843696 -12.17581460983156 0 0 0
1119 1 11.562883041252627 -10.46460312418688 -8.635421595772375 -1 0 0
26 1 9.449554292777746 -9.417762390800634 -13.556605786651707 0 0 1
968 1 8.745977984224877 -8.851052528977569 -11.4592750125084 0 0 0
1580 1 12.7902491123776 -12.955589420813277 -8.126135993738405 0 1 0
1109 1 -10.734171845326243 -8.538016407996352 -10.909183415287178 0 0 0
1116 1 -12.319279921934339 -7.672159303146596 -12.707627614241389 0 0 0
1110 1 -11.475064697085903 -8.179306602014272 -8.760461560746853 0 0 0
1115 1 -13.172423495371033 -7.39675756030307 -10.330799063847902 0 0 0
1108 1 -9.399858671320084 -6.897420913760547 -9.021142262355536 0 0 0
1114 1 -10.235289354699141 -6.512849521503413 -12.999891130992511 0 0 0
1255 1 -11.101398921646393 -6.04965381500749 -10.711658255320435 0 0 0
957 1 -12.861660910924181 -5.17986333792375 -12.364102670013745 1 0 0
1262 1 -10.710598059926891 -4.140021663473393 -12.669020278184592 0 0 0
1241 1 -9.857175436875306 -4.606283137979304 -8.774457192563876 0 0 0
1242 1 -8.958174493950487 -4.914823938752162 -11.151563355462248 0 0 0
1254 1 -11.522073042905346 -3.836586646485438 -10.571243048412281 0 0 0
1257 1 -11.955760783921988 -5.900522873841448 -8.428135639162143 0 0 0
1113 1 -13.564395216676086 -4.972746327473704 -10.09238467596662 0 0 0
1106 1 -8.564311627573272 -7.329270322859125 -11.242027844396324 0 0 0
1256 1 -12.2794138208036 -3.3903582140015125 -8.169183557071992 0 0 0
1240 1 -8.145233004053466 -5.3204302677279784 -13.356781235760806 0 0 0
1004 1 -6.774073631958645 -8.31053916795657 -9.814300798492543 0 0 0
1098 1 -4.8134475038277085 -7.135831168408556 -10.192619676474298 0 0 0
1099 1 -7.148233445150087 -5.857257362747255 -9.403259196848548 0 0 0
1095 1 -4.416929726077129 -5.065771887739189 -12.028676273717506 0 0 0
1096 1 -3.8911475980711963 -7.3953493960602685 -12.358197015427113 0 0 0
1097 1 -6.564195477131662 -6.227668495359486 -11.56841056323687 0 0 0
1229 1 -6.837716804861218 -3.8464623559569127 -11.4034732860543 0 0 0
1215 1 -5.0811070744081075 -4.641643098009597 -9.810948955329835 0 0 0
1228 1 -7.776624666984932 -3.4598270588023166 -9.134591796241619 0 0 0
1212 1 -2.9176925682208594 -3.4448548965146344 -10.098122596602966 0 0 0
1200 1 -3.4099044708893587 -5.578180967020542 -8.145112133303718 0 0 0
1202 1 -3.0825632873214897 -7.956542379713654 -8.48484914928818 0 0 0
1088 1 -2.7123514622633937 -5.872791422010817 -10.540451930201247 0 0 0
109 1 -1.448017660011832 -8.715898197870828 -13.090207626050185 0 0 1
1067 1 1.5478023287574576 -7.74151731274454 -9.387038322295707 0 0 0
992 1 -0.076562309467473 -7.031659324889012 -11.01303481757396 0 0 0
1089 1 -2.135848965207794 -8.37280390875331 -10.931155653228796 0 0 0
1087 1 -1.8229449289881128 -6.169650567953184 -12.656192803078396 0 0 0
1075 1 -0.5433990949274072 -4.628043890667033 -10.853029459298302 0 0 0
1076 1 2.008060896590985 -5.760692154017558 -11.537149612125653 0 0 0
1077 1 -0.9963789051318113 -6.659266437815084 -8.851914580768968 0 0 0
1213 1 -1.448369800562979 -4.269869919142405 -8.548674730702661 0 0 0
1066 1 1.1473550972841924 -5.39630085407723 -9.195077632757272 0 0 0
1086 1 -2.2875482931684594 -3.7253317003780744 -12.452793340820733 0 0 0
1085 1 0.18691827284533424 -5.007853486660823 -13.224723854513613 0 0 0
985 1 2.4452470018083385 -8.353327276046606 -11.732862966617358 0 0 0
990 1 0.6802959351458107 -7.516259405316746 -13.313502362519275 0 0 0
1064 1 1.6481741354648367 -3.4531190793544457 -11.255389944682344 0 0 0
1074 1 2.2528721639754448 -3.8586128796902237 -13.538609373651482 0 0 0
983 1 4.458621599772952 -7.0051104129323685 -12.102061858036564 0 0 0
976 1 6.239380372030604 -7.863240635286512 -10.56840288032445 0 0 0
1065 1 3.793526955487918 -6.630034330281743 -9.891423584764375 0 0 0
1051 1 4.082035432461032 -4.568595157681681 -11.937665213922976 0 0 0
1052 1 5.834623764429162 -5.319948182178269 -10.249237470866685 0 0 0
974 1 6.535851512212664 -5.820841016284035 -12.504415039695909 0 0 0
1169 1 3.3430073222641195 -4.250694258585895 -9.593303482746748 0 0 0
1040 1 7.511148705771879 -6.228908499800218 -8.728907946791773 0 0 0
1050 1 7.833851023016097 -4.1600348467043595 -10.566852003378287 0 0 0
1039 1 7.14270566528676 -3.901244505221154 -8.338786574795442 0 0 0
1049 1 6.068102699987245 -3.3632306364811377 -12.319718797040299 0 0 0
1053 1 5.3725134153669405 -7.57262587606529 -8.30705770568283 0 0 0
977 1 6.97921512579004 -8.28984537053084 -12.889469806316928 0 0 0
967 1 8.307433301427606 -6.613006038049105 -10.94865629241957 0 0 0
1170 1 4.9488319686447095 -5.097197424460056 -8.001688658196223 0 0 0
1263 1 12.57637994851081 -8.697555571097775 -9.921126302629245 -1 0 0
965 1 8.615617364155588 -4.687673684138041 -12.940099519646944 0 0 0
956 1 10.358810897786794 -5.40182712582428 -11.280773507040955 0 0 0
958 1 10.026644579272832 -7.380773731030649 -9.280931694083701 0 0 0
1038 1 9.610436670748998 -5.005163716391172 -9.018560695871894 0 0 0
1026 1 10.921682760969277 -7.812511439316108 -11.55075278031935 0 0 0
932 1 12.998486829228982 -6.554684705151374 -11.824546819454222 0 0 0
966 1 9.159515100248294 -6.935721671666953 -13.149279943571011 0 0 0
1024 1 12.701297634771441 -4.204975200503691 -11.699479270942769 0 0 0
1025 1 11.813446338150284 -3.835001216567978 -9.269544539623762 0 0 0
1258 1 12.08649936480524 -6.267439944453432 -9.635706040585948 -1 0 0
1036 1 10.758544948662399 -3.366841766678549 -13.335958564934431 0 0 0
90 1 11.199919392592784 -5.812134100049903 -13.514466023959095 0 0 1
1104 1 -8.669462750633539 -2.8552053243189697 -13.132066820491307 0 0 0
128 1 -13.204146697374863 -2.8797346320660004 -12.051997306602388 0 0 1
1253 1 -9.452633242110316 -2.5676214835195488 -10.667190096014389 0 0 0
1252 1 -11.014236969209126 -1.8116101681210495 -12.371871572215978 0 0 0
1418 1 -11.546209987926753 0.6993853674318871 -12.01908198646877 0 0 0
1408 1 -11.995341227960196 -1.2336771616357538 -10.163557217950563 0 0 0
1409 1 -9.910717531766679 -0.07303268995522139 -10.411407499195409 0 0 0
1237 1 -9.134490281631155 -0.4956912604232002 -12.622730985426942 0 0 0
1573 1 -12.333851334491502 1.091542960278364 -9.741670940822337 0 0 0
1411 1 -10.235642252242778 -2.191847846531541 -8.489972236453621 0 0 0
1405 1 -9.529451563042063 1.957081843969359 -12.507858185825881 0 0 0
1022 1 -13.682156943161276 -0.5369664622148633 -11.72331929124738 1 0 0
1546 1 -8.626039710157789 1.3956929264047044 -8.490947664698423 0 0 0
1393 1 -10.669851488230018 0.2194982918474917 -8.141032512763896 0 0 0
1407 1 -10.413856804456282 2.3893148160394375 -10.26224697945153 0 0 0
250 1 -13.21097225304757 1.4924897747032766 13.473480649913537 0 0 0
1394 1 -8.157651129521444 -1.0552131554890103 -8.814734444748622 0 0 0
1239 1 -7.340906624339378 -1.3768955621182517 -11.094948819280415 0 0 0
1392 1 -7.853879707984591 1.031705324905019 -10.8707268694043 0 0 0
1225 1 -4.679275705140492 -2.6438766257673976 -11.805395941079912 0 0 0
1226 1 -5.562090092411738 -2.2419132815892855 -9.651930053503204 0 0 0
1224 1 -5.257661797714439 -0.2716544045490643 -11.496692920598347 0 0 0
1376 1 -3.467151267316357 -1.0679699038529655 -9.979060945868529 0 0 0
1377 1 -6.067766023186935 0.16148535531212538 -9.298991509997936 0 0 0
1359 1 -3.9539158490299346 1.340669763600724 -9.52726538309437 0 0 0
1388 1 -6.9977071176426 0.6799247094350953 -13.083716986535084 0 0 0
1210 1 -3.2209469980520193 1.0814960557736324 -11.927503021811445 0 0 0
1238 1 -6.612027652876433 -1.7205022538737946 -13.472306977252025 0 0 0
1375 1 -5.578891310318241 2.175181567638184 -11.219673194171335 0 0 0
210 1 -4.848016923105863 1.950925844686946 -13.475314616689197 0 0 1
1222 1 -2.7426448561446914 -1.2802658178793465 -12.240547468488524 0 0 0
1199 1 0.7977325601576908 -3.02815535260525 -8.956681881303204 0 0 0
1073 1 -0.18711184659390945 -2.6004389609933014 -12.855237661599942 0 0 0
1211 1 -0.9127067621299716 -2.0775180550792562 -10.489486587534635 0 0 0
1196 1 1.1447243497346253 -1.0740078139239024 -10.992956622363646 0 0 0
1342 1 0.5233414834952388 1.3835339459341949 -10.688459407886096 0 0 0
1360 1 -1.520086134677026 0.197898665590591 -10.342500025300792 0 0 0
1084 1 -0.4438900484974191 -0.11793283403234867 -12.527989811003701 0 0 0
1195 1 1.5002249498368059 1.1720691368463036 -12.850282985542927 0 0 0
1198 1 0.17242328581986044 -0.6620319666645322 -8.706113328963959 0 0 0
1063 1 1.793146347714064 -1.187822424940924 -13.318982559930337 0 0 0
1182 1 2.4786182787340802 0.6027418452940072 -9.121034673123294 0 0 0
1344 1 -0.11370440386997771 1.8301716701637254 -8.293217341586326 0 0 0
1378 1 -1.8531864330126488 -1.7899878102805893 -8.192441097408782 0 0 0
1209 1 -1.1305511700857274 2.2953302293492435 -12.230833615499085 0 0 0
1197 1 2.8866598826099317 -1.8668571047955602 -9.232125172652205 0 0 0
1168 1 5.4226005800380594 -3.017816264266795 -9.956840055944003 0 0 0
1062 1 3.18475224646871 0.272384738751672 -11.361744892509194 0 0 0
1183 1 3.6659930648396877 -2.161425168175276 -11.587394883845668 0 0 0
1181 1 5.69917317219433 -0.9875950820909889 -11.988256329566576 0 0 0
1166 1 7.497791158998771 -1.773196410933572 -10.348158876499632 0 0 0
1165 1 6.950242014867724 0.5589870748333148 -10.060933063546312 0 0 0
1180 1 5.321742547883675 1.5483807190764551 -11.65269242668265 0 0 0
1167 1 4.910455510876405 -0.6173014516224722 -9.709439950799908 0 0 0
1326 1 4.569653464636266 1.8290807453097564 -9.382053948747982 0 0 0
1047 1 7.888647361167623 0.32717513798096043 -12.35148727343375 0 0 0
1048 1 8.292353435130325 -2.129381291883268 -12.682776588146872 0 0 0
198 1 3.639930593690755 2.3189493207908782 -13.274354001879688 0 0 1
1293 1 8.404277829488676 2.2460685272532075 -8.187421141089125 0 0 0
1060 1 4.161450527466192 -0.03215004860356707 -13.612097286896061 0 0 0
1152 1 6.627225114216172 -1.4057006257280324 -8.018767872736685 0 0 0
1419 1 13.895864724909432 -2.5006390048175167 -9.639275474907503 -1 0 0
1037 1 9.974715129701208 -2.993432579708294 -11.060959650320108 0 0 0
1294 1 8.790934643736437 -0.22896970586997512 -8.448931752956632 0 0 0
1147 1 11.588671904389033 0.6686759674918505 -11.04714807565568 0 0 0
1023 1 12.130158168514205 -1.8785152975036485 -11.322902973169388 0 0 0
1151 1 9.293987133785356 -2.637038434348119 -8.65118493206564 0 0 0
1035 1 9.616302086390311 -0.5405455632066047 -10.635205101994288 0 0 0
1135 1 11.36797244182443 -1.3567157035627684 -9.011031052599417 0 0 0
1134 1 10.839279635753973 1.0532655248840985 -8.609877592830447 0 0 0
1164 1 9.894696661058076 1.5516195086178008 -12.80295009157417 0 0 0
1021 1 13.464661782665386 -0.14477705874517 -9.43791062630578 0 0 0
195 1 10.343558296680937 -0.9027070340466636 -12.982995597717554 0 0 1
1150 1 9.105270049986926 1.763303803660719 -10.448595351197124 0 0 0
1132 1 12.483687295366083 0.27648731825503425 -13.396306381471005 0 0 0
472 1 13.757160941523301 1.7955994806047038 -11.432980146785505 0 0 1
1417 1 12.882199261712154 2.225277742846334 -9.183690320084938 -1 0 0
193 1 12.999352806697106 -2.2352127910138666 13.551182495760969 0 0 0
1406 1 -12.077791489863888 3.1223638362833412 -11.731004308066767 0 0 0
1559 1 -10.403149655534989 6.659057393860149 -11.837104563457363 0 0 0
1560 1 -10.022436507363988 4.289223763890931 -12.141522212894026 0 0 0
1572 1 -12.628028079633127 5.5751708249599865 -11.636409836432867 0 0 0
1561 1 -10.850491712577766 4.848100228741526 -9.818807026586645 0 0 0
1706 1 -11.27264774552186 7.244593549306572 -9.564155306774754 0 0 0
1274 1 -13.355071954114074 5.867929913923167 -9.210637813053184 1 0 0
1290 1 -12.76195161752414 3.407807638170148 -9.476918094484095 1 0 0
1543 1 -8.57896676978627 5.955034372515062 -10.21954888474018 0 0 0
1545 1 -9.034843276215014 3.7941542078030004 -8.310983259581217 0 0 0
1571 1 -13.044336838692347 7.943813239314682 -11.203927150163878 0 0 0
229 1 -13.919231788788107 3.8737299458492096 -13.425785094019565 0 0 1
382 1 -12.12096879485332 7.5299973049075675 -13.44331967155749 0 0 1
1558 1 -8.297133488826297 8.037600921403111 -12.30226843211233 0 0 0
1391 1 -8.23722757441824 3.4472580826846304 -10.515795582939806 0 0 0
1530 1 -6.5349607394353555 2.6066913205508193 -9.052221740765223 0 0 0
1389 1 -7.899322632566439 5.552824315770515 -12.585975853229852 0 0 0
1374 1 -3.5517957747137725 3.6174537192604923 -11.42455170186698 0 0 0
1390 1 -7.445223100411882 3.0872899217603447 -12.876704522881166 0 0 0
1373 1 -4.0664581423916815 6.01196192795781 -11.339333632472032 0 0 0
1542 1 -5.744201533786162 6.709945667907952 -12.972561778322682 0 0 0
1544 1 -6.308383921160139 4.659510080218901 -11.01943430060282 0 0 0
1527 1 -4.89045660335448 6.367245605862454 -9.050470209472248 0 0 0
1528 1 -4.524744986666656 3.833233251405762 -9.214067381609679 0 0 0
1529 1 -6.95448978373605 5.117551098478565 -8.626520567211887 0 0 0
1664 1 -6.564609779220056 7.117131015887658 -10.69933239623012 0 0 0
1387 1 -5.363666915597296 4.27347169254136 -13.22354963494671 0 0 0
1680 1 -7.3987447055772355 7.512916753718756 -8.46428248878418 0 0 0
1355 1 -3.5900131645048887 7.95410457032164 -13.32707204619946 0 0 0
1663 1 -2.670188899763378 7.392313761224351 -9.358294982944926 0 0 0
1358 1 -1.970968026490949 2.5341915387314415 -9.919975718520314 0 0 0
1511 1 -2.2721680459754907 5.022386968456097 -9.519145949258046 0 0 0
1194 1 0.9930353584282816 3.562067905884941 -12.688289542908047 0 0 0
1341 1 0.17727389262118542 3.792264171175436 -10.4464186944001 0 0 0
1356 1 -1.609304670440645 4.7595549594759206 -11.872259739569975 0 0 0
1357 1 -0.15347362253199393 6.224241645493784 -10.026285888967054 0 0 0
341 1 0.5099871551065789 5.9696670647224686 -12.404780799100488 0 0 1
1325 1 2.107404608418493 3.019630434408846 -8.640070086551615 0 0 0
1510 1 -2.001632252918153 7.190083043562446 -11.605450950253735 0 0 0
1495 1 1.5414618722172815 5.446941753554842 -8.412990169877457 0 0 0
1493 1 2.4121480995087037 5.015861412132367 -10.717367703601703 0 0 0
1492 1 1.996420737151137 7.5501876063531626 -10.40843890167147 0 0 0
1337 1 2.709038469133459 7.209874270915783 -12.727909792796213 0 0 0
1340 1 2.7854145550036566 2.4878894839754864 -10.938491471681939 0 0 0
1636 1 1.1653262270137663 7.803744115264045 -8.173001857695624 0 0 0
1338 1 3.127773556199939 4.707572892868065 -13.069551325322387 0 0 0
1163 1 7.463276771992364 2.722744683137428 -12.10966220948114 0 0 0
1307 1 6.154202118666385 5.5873075950661 -9.547455118182711 0 0 0
1323 1 4.561661860744207 6.36547113653689 -11.294130770754538 0 0 0
1324 1 4.802779196314189 3.9042800421843147 -11.424743011489118 0 0 0
1309 1 6.568041705797048 3.143048755678553 -9.765290264056958 0 0 0
1308 1 6.975527979986422 5.095530641330981 -11.795992172871959 0 0 0
1478 1 4.182226537529976 4.193564043349596 -9.196052506258432 0 0 0
1648 1 3.637387880364523 6.654602336376193 -8.851230545933493 0 0 0
1476 1 6.511281413317162 7.522137109986428 -11.587376417400069 0 0 0
1322 1 5.306622209956251 6.018373232976469 -13.60292460747464 0 0 0
1461 1 8.16173196020294 6.748728095120207 -9.85759531691092 0 0 0
1477 1 5.6872566042043164 7.955281416435266 -9.146659523322135 0 0 0
1291 1 8.614661198811648 4.2628141100437595 -10.169934668420261 0 0 0
611 1 13.61196961484149 6.360063947188674 -13.09536312429464 0 0 1
1292 1 11.045118470542521 3.0902500588930835 -10.796744132737055 0 0 0
1148 1 9.466144461083596 3.9812310314529142 -12.44695367985931 0 0 0
1130 1 9.044753006910332 6.381566901297607 -12.03600865075414 0 0 0
1273 1 12.806930223460276 6.779718686123925 -10.783919521658152 0 0 0
1288 1 11.668314273699684 5.197923540506636 -12.687352494156187 0 0 0
467 1 13.261481963425465 4.334250506149971 -10.986475695676697 0 0 1
1275 1 10.841304422039345 5.464463422754722 -10.490552055195614 0 0 0
1448 1 10.364445969115243 3.396213313278711 -8.578457832297833 0 0 0
1429 1 12.133545076353757 7.204509958809222 -8.431050411515528 0 0 0
328 1 12.101087731039799 2.710050704973181 -12.963241064563027 0 0 1
1287 1 11.106592552662507 7.532963204536024 -12.45485620238357 0 0 0
1276 1 12.4731675802941 4.628281479120716 -8.694082112685795 0 0 0
1446 1 9.879757312165912 5.9470234542593445 -8.216925964849079 0 0 0
1146 1 10.305420964795532 7.953091130014357 -10.13235313982842 0 0 0
1693 1 -9.18587053223973 8.308808236444435 -9.951405546430767 0 0 0
1694 1 -12.17182897103491 12.01534694154012 -9.064651041238358 0 0 0
1705 1 -11.088146754350968 9.057147562587296 -11.586922728138713 0 0 0
1691 1 -8.826610101209074 10.437691856389343 -12.004480039147726 0 0 0
1692 1 -11.430709045839905 11.503157100090405 -11.423111350756027 0 0 0
541 1 -13.092233115439802 12.349212061346261 -13.083439451106074 0 0 1
1704 1 -9.381893270896544 12.800978852392987 -11.801888576655008 0 0 0
1677 1 -9.711033292378765 10.640192634467486 -9.766839132015878 0 0 0
1272 1 -12.698273325651666 9.907598246183245 -13.234920223127787 1 0 0
1793 1 -11.684330854759825 9.606171513403751 -9.272825687281642 0 0 0
1426 1 -13.494633121301158 10.460524418232595 -10.922870619346023 1 0 0
1789 1 -9.960197124740828 13.13542395133636 -9.406938706367267 0 0 0
1430 1 -13.715957061322737 8.42846162868954 -8.95534394182439 1 0 0
1270 1 13.844866363103767 12.822751110056611 -10.829010300881222 0 0 0
1525 1 -4.477826996391068 8.384455194164484 -11.075512993226987 0 0 0
1678 1 -7.136601305362128 9.603912284773774 -10.331181211277915 0 0 0
1675 1 -7.513025310079253 11.977726710712599 -10.293854036325683 0 0 0
1676 1 -3.1998964935219973 10.019020687634033 -9.29899337799701 0 0 0
1662 1 -5.763285772525071 11.250226856048908 -8.661765698652 0 0 0
1523 1 -4.939136943381618 10.798642936069719 -10.942513088040256 0 0 0
1507 1 -4.712615064309977 12.814002684757892 -12.920314189394974 0 0 0
343 1 -4.275305704347289 10.431627431202848 -13.213152301711789 0 0 1
1541 1 -6.239964822288422 9.171290417311258 -12.818927995527588 0 0 0
1763 1 -3.653847472207014 12.390266148371435 -8.894283878269125 0 0 0
518 1 -6.686780013306808 11.555276828841972 -12.445952848190043 0 0 1
1651 1 -5.256292772608397 8.821474606776903 -8.876401626408946 0 0 0
1660 1 -5.506172403406797 13.251441620354836 -10.522820111154275 0 0 0
1661 1 -2.8453504325955254 11.942072940869657 -11.146625969570618 0 0 0
1776 1 -6.230303173927026 13.568878115528047 -8.213009600612796 0 0 0
1526 1 -2.483572456206643 9.574218581656837 -11.542469581646131 0 0 0
1524 1 0.020993424778177783 8.373294482189586 -12.07521883535479 0 0 0
1509 1 -0.661658739338792 8.692324627278754 -9.92912759051613 0 0 0
1646 1 1.440883759143036 9.919162783246904 -10.229726960146586 0 0 0
1491 1 2.22634434392897 9.616382472597788 -12.431039451182686 0 0 0
1647 1 -1.1548753568039736 11.124366790429793 -9.41969515128071 0 0 0
1490 1 1.8095426477825747 12.010451254786314 -12.136366602815954 0 0 0
1659 1 -0.34347641564670006 10.780708574168909 -11.83419785019117 0 0 0
1645 1 0.8936731814903762 12.365016855080611 -9.82586514428924 0 0 0
1505 1 -0.7953437318863443 13.166806172880072 -11.52021056954778 0 0 0
1631 1 2.5961570295517564 11.665108746002645 -8.334366401943562 0 0 0
13 1 -2.1468187162685517 11.66535149900012 -13.476671660647877 0 -1 1
1619 1 3.2792623646160894 9.134119742680678 -8.60560043132637 0 0 0
1339 1 4.063788015200624 8.735430592665075 -10.808500877480052 0 0 0
1462 1 7.746395537465515 9.112291596548804 -9.494127650567455 0 0 0
1632 1 3.512841751068988 11.190240550748204 -10.575268529132712 0 0 0
1321 1 4.309113779024946 10.836021406244047 -12.776088079457978 0 0 0
1458 1 7.473792155430589 11.599768608666981 -9.16179506035225 0 0 0
1475 1 5.592872350757714 12.447031365941093 -10.930980377743442 0 0 0
1474 1 6.041359163227417 9.974003592786794 -11.162633990475555 0 0 0
1620 1 5.3467301788390795 10.454743379539096 -8.919799921416873 0 0 0
1723 1 4.784490296039026 12.826132019793924 -8.627617047988434 0 0 0
478 1 4.861112793611538 8.452162241159439 -13.135365161632986 0 0 1
1473 1 6.4904192674078995 12.071448294537731 -13.161979533093497 0 0 0
1289 1 8.117176683120855 10.998305078687764 -11.590962470590538 0 0 0
1630 1 3.9410790580363635 13.311688154874101 -12.551036324112545 0 0 0
1459 1 6.847266535083916 9.687730576445034 -13.507932225983447 0 0 0
1616 1 7.708626821101488 13.565957653946676 -11.268897378124514 0 0 0
1618 1 3.0277121161618386 13.577147346683798 -10.40599961855247 0 0 0
615 1 8.531538587479867 13.218740473779608 -13.528448844485592 0 0 1
1305 1 8.57095675994693 8.738016245588113 -11.950254800646727 0 0 0
1271 1 13.152834547613134 8.631368073554846 -12.908447612853843 0 0 0
1442 1 12.729237544476502 11.125155034843427 -12.652865211677272 0 0 0
1443 1 11.852767177587525 11.574489716440592 -10.388410315554525 0 0 0
1444 1 12.374703290255367 9.18541341990625 -10.64353039422875 0 0 0
1445 1 9.899870390034275 10.352423714187278 -9.938269012634576 0 0 0
1441 1 10.213373799459552 12.294856293083736 -11.928595686578356 0 0 0
1457 1 10.61535358840794 10.017195517396953 -12.177339182605177 0 0 0
1603 1 9.485548789529625 12.81685561573753 -9.63364588446326 0 0 0
1709 1 13.307030422268019 13.312515216681618 -8.457208954172051 0 0 0
1592 1 11.65646902692839 9.631316164936326 -8.275842689448904 0 0 0
1428 1 13.591382025482291 10.902122590086577 -8.630916409763973 0 0 0
1591 1 11.277084299180393 12.03183932428443 -8.044339794004832 0 0 0
930 1 12.21668196463556 13.767803551981718 -12.376380765021535 0 -1 0
1460 1 9.541044350232072 8.405933847505839 -7.7796863947615424 0 0 0
1690 1 -11.002496226499257 13.723723049576453 -13.443953904707678 0 0 0
1799 1 -11.939066654240793 13.915547145454962 -11.144676382377762 0 0 0
1008 1 -7.2706256587164315 14.081468339242846 -12.15144370677387 0 -1 0
1752 1 -1.693241363891227 13.538777296497472 -9.239550596478521 0 0 0
10 1 -2.543460055652213 14.106304744555885 -13.036378072245 0 -1 1
1741 1 2.2327475196590942 13.994069168639118 -7.889291921286765 0 0 0
1604 1 6.812353204394226 13.997018456748165 -8.936412596203343 0 0 0
1590 1 11.438975338556594 14.092987408402173 -10.088172670822388 0 0 0
1111 1 -9.087693375648294 -11.46101147664784 -7.357720279041432 0 0 0
1118 1 -11.381331315925458 -12.673864400375892 -6.9833533995495385 0 0 0
1112 1 -9.928601767151118 -11.187081717275891 -4.946521201281016 0 0 0
1247 1 -12.522079858358643 -9.916269188786087 -4.258137771549071 0 0 0
1259 1 -11.837106747929873 -10.257705300824185 -6.579155946431834 0 0 0
1261 1 -13.374876580159595 -11.947266058414824 -5.876996509833517 0 0 0
1857 1 -11.818169437138588 -12.461800053913272 -4.267086071967595 0 1 0
1835 1 -9.457001920128054 -13.598605024790647 -5.390798504014311 0 1 0
1842 1 -8.62957447364256 -13.9350337021783 -7.602189818196076 0 1 0
1845 1 -13.53023122915494 -14.15426737967396 -6.6245374703645235 0 1 0
1246 1 -9.751608376152166 -9.143337208132762 -6.973135863016616 0 0 0
1369 1 -8.745461152515642 -9.496902348239647 -2.9977789587931323 0 0 0
1402 1 -10.771523926044312 -10.77296262925925 -2.6174390654209905 0 0 0
1248 1 -10.225061890233146 -13.321473320680328 -2.825677652621808 0 0 0
1234 1 -10.417216247545813 -8.701816035076973 -4.661424219102191 0 0 0
1249 1 -12.304449741009623 14.332359570487554 -2.501159753646645 0 -1 0
1764 1 -6.533691381741149 -12.691327632812612 -7.932034187144597 0 1 0
1235 1 -8.34116351408229 -11.988097123526414 -3.3691065984273525 0 0 0
1006 1 -7.153423061018554 -10.236354711928612 -7.56668168651974 0 0 0
1103 1 -7.459212416307527 -12.382514792841803 -5.643114592990907 0 0 0
1102 1 -5.348616164727085 -11.210411522766204 -6.031597444600186 0 0 0
1233 1 -7.817032403203982 -10.012910054029376 -5.2110275192377 0 0 0
1220 1 -6.155112877337412 -10.749231433201548 -3.60901404265452 0 0 0
1083 1 -4.035369633601931 -9.590835166461211 -4.163390780909289 0 0 0
1828 1 -5.780605669077071 -13.192507868893095 -3.9379889045081047 0 1 0
1093 1 -3.661128731644242 -12.008552456927536 -4.382747963503002 0 0 0
1094 1 -3.3085380919344693 -9.981439380572766 -6.404893738159131 0 0 0
1827 1 -4.903324808922772 -13.559390045234332 -6.211586844102699 0 1 0
1820 1 -2.812381545650327 -12.478543576777033 -6.772082209222161 0 1 0
1821 1 -3.1174951301434266 14.26589653726305 -4.672350962215075 0 0 0
1218 1 -5.80676185658797 -8.803002212089542 -5.760032152748368 0 0 0
1069 1 1.7215421499051171 -12.316906172189523 -7.6901719669085 0 0 0
996 1 -0.8335149565417712 -11.13339570706229 -7.244129656579715 0 0 0
1080 1 0.6271415515440601 -9.457633490690137 -5.117200074808498 0 0 0
1082 1 -1.109245817968553 -13.220664255259274 -5.08448166849683 0 0 0
1070 1 0.14885692877671097 -11.619437768111329 -3.1476129560357062 0 0 0