LAMMPS data file via write_data, version 2 Aug 2023, timestep = 0, units = metal

1863 atoms
3 atom types

-14.19614698137055 14.19614698137055 xlo xhi
-14.212256734820425 14.212256734820425 ylo yhi
-13.521680620357452 13.521680620357452 zlo zhi

Masses

1 55.847
2 1.008
3 1.008

Atoms # atomic

976 1 -12.157672118978946 -11.16590951570068 -10.382453210168539 0 0 0
970 1 -12.766485898484765 -9.127957457341617 -11.700881013286525 0 0 0
975 1 -11.457615286806567 -9.129568075127281 -9.398937263201322 0 0 0
1025 1 -9.760202446768613 -10.924550072587497 -10.1258228300504 0 0 0
179 1 -11.17652155435054 -11.09396992251333 -12.540265012126898 0 0 1
947 1 -13.335778810508536 -11.035222338676471 -8.178366720642423 0 0 0
985 1 -10.794364700905696 -11.274966671239449 -8.15751578235064 0 0 0
972 1 -10.415741976959307 -12.895734804145004 -11.241880360727754 0 0 0
302 1 -9.365679024858508 -13.266142461005709 13.4976370827056 0 0 0
177 1 -13.645836731169082 -11.20330346674184 -12.754510623903016 0 0 1
181 1 -13.11194044240095 -13.16697285355855 -11.532104833117488 0 0 1
949 1 -11.581707665138973 -13.152358625960364 -9.187990413593358 0 0 0
977 1 -8.973778194731949 -12.76094674908016 -8.715637028733044 0 0 0
1019 1 -10.221391049989638 -8.92854603072647 -11.540519535869294 0 0 0
974 1 -13.800149510946557 -9.05786057254624 -9.631504717958844 0 0 0
948 1 -13.968570436324763 -13.17255139187318 -9.068298095200841 0 0 0
1037 1 -8.866414695307995 -8.650822822095556 -8.905497179696589 0 0 0
1027 1 -8.580288445658628 -11.020862744650946 -12.418147841117879 0 0 0
1028 1 -6.175790984176409 -11.122615667750345 -12.05082885664022 0 0 0
1039 1 -7.332418057180325 -10.852153987452692 -9.794569765633646 0 0 0
1040 1 -4.670699890858186 -10.849666465343965 -9.722225147845817 0 0 0
1115 1 -4.425458865889096 -13.09225370896904 -12.903389311371873 0 0 0
979 1 -8.07940982463317 -12.912613541985351 -10.995922865747541 0 0 0
1041 1 -5.480976120331336 -12.954962012179909 -10.681573270203625 0 0 0
1113 1 -3.577146564242396 -10.915501523187503 -11.843859687557925 0 0 0
1029 1 -6.892601292771515 -13.159860896458964 -13.144678777445403 0 0 0
988 1 -6.375989102408805 -12.687889545853354 -8.414053304163724 0 0 0
293 1 -4.340252364310686 -9.00502871973816 -13.224341523513818 0 0 1
1055 1 -3.9358854193466613 -12.627905724612313 -8.23988695610153 0 0 0
1111 1 -5.30781706248718 -8.954534306965071 -10.972741312085374 0 0 0
1026 1 -7.84029858175243 -8.941804765798139 -11.126243631223414 0 0 0
294 1 -6.822091145101666 -9.203117411832334 13.491022297731876 0 0 0
1042 1 -2.827272638884706 -12.937911985440882 -10.404687735957848 0 0 0
1130 1 -3.982945429894082 -8.606349285972861 -8.609098734179224 0 0 0
1114 1 -1.2348143293981302 -11.004685435090195 -11.703730982017559 0 0 0
1132 1 -2.1032721531115346 -10.816652911702942 -9.45459241852036 0 0 0
1116 1 -1.9192811228329791 -13.181608037829493 -12.688032677386731 0 0 0
1134 1 -0.3648386662159293 -12.882142162666243 -10.345079950483624 0 0 0
1231 1 1.2814047161835056 -11.013378029423446 -11.40962925442219 0 0 0
1133 1 0.3759820415606363 -10.755224143132738 -9.203257340438 0 0 0
1233 1 0.40645776660672617 -13.044506333571203 -12.516032250332493 0 0 0
1255 1 2.01896552915019 -12.901507751195398 -10.105520665226503 0 0 0
1210 1 0.5708045570204607 -9.017708113495043 -12.85357155221408 0 0 0
445 1 -1.8049352496223126 -8.942904893271294 -13.067910159120379 0 0 1
1229 1 -0.3749016774322129 -8.844009864470902 -10.695339976109876 0 0 0
1230 1 2.234290667191985 -8.911896984064178 -10.345818450316246 0 0 0
1112 1 -2.869968584852103 -8.80560497092749 -10.826845762033782 0 0 0
1057 1 -1.440061889901262 -12.565706869801685 -8.02143839816913 0 0 0
1253 1 1.137708162830723 -8.72285913523675 -8.183383271217853 0 0 0
1131 1 -1.3569525953475203 -8.669271960389288 -8.428731911651692 0 0 0
598 1 2.9745984745899925 -13.068279254851939 -12.410207977459121 0 0 1
1232 1 3.8171918060785437 -10.862889596308808 -11.340521243852013 0 0 0
1234 1 5.427423248854602 -12.954390806458596 -12.184351838849512 0 0 0
1257 1 4.50593349180404 -12.922303409792562 -9.937575591539126 0 0 0
1377 1 6.218948335473996 -10.994191779686163 -11.28106170394382 0 0 0
1258 1 6.983293570444605 -13.029675940202134 -9.724522253867374 0 0 0
1254 1 2.875038231554935 -10.853561696533859 -9.106640352646497 0 0 0
1256 1 5.271064904075239 -10.99080153236335 -8.852183482819363 0 0 0
592 1 5.729207641603654 -9.036515561891083 -12.446549387569247 0 0 1
1401 1 7.888291716150878 -10.969655943363584 -8.774769354613362 0 0 0
1211 1 3.1963647180388897 -8.976580621225438 -12.678101727077852 0 0 0
1375 1 4.586640651531809 -8.980657031725338 -10.20218356602389 0 0 0
1376 1 6.991570281822117 -9.066340420334008 -10.156930714192049 0 0 0
1378 1 7.947072939216987 -13.18186952482059 -12.105693949157873 0 0 0
729 1 7.341436475760112 -11.2113360210875 -13.466346443854098 0 0 1
594 1 4.818994672614128 -11.031881159681337 13.42886113822687 0 0 0
1354 1 8.042380016325222 -9.092884480718801 -12.326808501237766 0 0 0
1397 1 3.6263545575140945 -8.633337992473923 -7.969932671752828 0 0 0
1498 1 10.505038294384793 -9.166770567507605 -12.180751376554127 0 0 0
1523 1 11.192361131806717 -11.104967953195315 -10.853225727473923 0 0 0
1402 1 9.549505472464435 -13.096671714559122 -9.541888450713728 0 0 0
1522 1 12.000588275848152 -9.049622761058467 -9.723032162611135 0 0 0
1625 1 12.906452978693455 -9.158187809935225 -11.898667901668647 0 0 0
1521 1 8.729206948447551 -11.123399225545304 -11.114836565095255 0 0 0
1543 1 12.640864151468946 -10.956410118616589 -8.363885061006837 0 0 0
971 1 13.713282776324931 -11.1909260924705 -10.546756116745389 -1 0 0
1541 1 10.233296290409957 -10.975948750039532 -8.606270855611122 0 0 0
1380 1 10.428567669620488 -13.185893021354724 -11.869591415391291 0 0 0
1404 1 11.93069888201277 -13.045610731663531 -9.456102183434819 0 0 0
1500 1 12.295281394399861 -11.291124995727879 -12.998746060745235 0 0 0
825 1 9.837276768441448 -11.265116690468348 -13.309965526364916 0 0 1
1520 1 9.515730453293237 -9.048479498563756 -9.911423512458633 0 0 0
1524 1 12.924172431912972 -13.261478200292624 -11.74924106427007 0 0 0
1023 1 -11.989060957937486 -7.0980828300107195 -10.709086252893027 0 0 0
1035 1 -10.598276687775856 -7.2327153555159915 -8.318535182786707 0 0 0
973 1 -13.082664800842172 -7.200444062902433 -8.521971271973474 0 0 0
1017 1 -12.78521360380836 -5.203373624891466 -12.08220494849563 0 0 0
1022 1 -11.138168130334256 -5.089161461713855 -9.698283449039735 0 0 0
1024 1 -9.349689786505348 -6.9888976895471435 -10.34332341093922 0 0 0
1096 1 -10.182266877141128 -4.96202786402444 -11.85064825844456 0 0 0
1105 1 -10.647539150333635 -3.020147430499925 -8.694126976137756 0 0 0
1020 1 -13.067401605476265 -3.0491965486513575 -8.9293624549293 0 0 0
87 1 -11.075130556271944 -7.158527952871534 -12.943514750060377 0 0 1
1018 1 -13.589565891421666 -7.198898079317458 -13.185925626744497 0 0 0
1021 1 -13.662449251831934 -5.156085097001352 -9.770981330375562 0 0 0
1016 1 -13.401725885135795 -3.209860023815992 -13.387913418782889 0 0 0
1094 1 -11.901146117304188 -3.1295429506546935 -11.123574926600059 0 0 0
1089 1 -10.949583832220116 -3.1306286669950776 -13.31214664575372 0 0 0
1107 1 -8.718320494968752 -4.504661936899129 -9.264506029962535 0 0 0
1038 1 -6.34102961589036 -8.68768039913921 -8.796773781938679 0 0 0
1098 1 -8.584798202395287 -7.084257897873599 -12.72075012980666 0 0 0
1097 1 -7.710482328378274 -4.8930692353133995 -11.627661061543186 0 0 0
1108 1 -6.241403074598826 -4.646511563406673 -9.160349944916485 0 0 0
1109 1 -6.9397088308952055 -6.786248594760079 -10.17028946109419 0 0 0
1110 1 -4.582095498518646 -6.68383937457361 -9.962845953297775 0 0 0
1206 1 -5.316752677314065 -4.72943135827561 -11.40364683903095 0 0 0
1225 1 -3.755394769634311 -4.635765252755974 -8.892366653621545 0 0 0
1099 1 -6.089425950146008 -7.025772409478376 -12.401873539347104 0 0 0
1208 1 -3.581916199879446 -6.850095421743176 -12.253495393322659 0 0 0
1207 1 -2.792114457000709 -4.89572498841205 -11.152973566752868 0 0 0
1209 1 -1.0959104653090996 -6.852248851914536 -12.059772787421991 0 0 0
1227 1 -2.0760463591012535 -6.763122013683765 -9.868660099763115 0 0 0
1228 1 0.47644595084640784 -6.7661483961935165 -9.557306247421085 0 0 0
1348 1 -0.2925276524138969 -4.858670534305803 -10.988808101616053 0 0 0
1350 1 1.4685970522736227 -6.943169373534186 -11.790244464498054 0 0 0
1331 1 0.7729463737486792 -5.037028633865152 -13.167679625832001 0 0 0
1226 1 -1.1787226303027722 -4.569464195211932 -8.800332244674731 0 0 0
1371 1 1.3912127818801672 -4.595468855809264 -8.552687300422416 0 0 0
1349 1 2.3224450332716735 -4.8251448436144955 -10.811549611482492 0 0 0
435 1 -1.8755773369990827 -4.914292418830566 -13.48616785822801 0 0 1
1353 1 6.424533080653969 -7.013413100069053 -11.324353915263739 0 0 0
1373 1 2.9963128083982298 -6.744263080119629 -9.422440765833215 0 0 0
1351 1 3.8904603121196537 -6.992869811972274 -11.631242426943075 0 0 0
1475 1 3.253769433927811 -5.124266429683749 -12.886382059398404 0 0 0
1493 1 4.803811769863877 -4.857075193156232 -10.531585664772983 0 0 0
1495 1 7.333527732480086 -4.847760472934148 -10.452133208354933 0 0 0
1374 1 5.426356640491804 -6.8357529671049235 -9.205018454066558 0 0 0
1372 1 3.7298973079174402 -4.592209167404789 -8.297839382579216 0 0 0
1352 1 5.722235335361564 -5.1586300710352955 -12.795997985499703 0 0 0
1519 1 7.794881463781799 -6.842314450001303 -9.149619212884346 0 0 0
1517 1 6.157432060623741 -4.687561773739228 -7.997322732190031 0 0 0
1476 1 6.592416153733478 -3.044776887840582 -11.811130786861495 0 0 0
721 1 8.238631289222557 -5.144990448245673 -12.648763909651187 0 0 1
1624 1 11.364943698075969 -7.100934829264104 -11.15631918152619 0 0 0
1497 1 8.866530357970127 -7.086069498473033 -11.312715157100662 0 0 0
1644 1 12.810179007055272 -7.004431725564054 -8.723106160997347 0 0 0
1496 1 9.826765435899144 -5.032033734817158 -10.308041400715666 0 0 0
1623 1 12.1118742829381 -5.081806274570633 -9.96120838804611 0 0 0
1642 1 10.176813322014695 -6.9218050649896865 -9.006020818001797 0 0 0
1603 1 10.731198429722646 -5.186826696160814 -12.505042680452261 0 0 0
1605 1 12.443809995824466 -7.3568695631885195 -13.463077943704393 0 0 0
1714 1 13.079715959124599 -5.135321401992028 -12.14484169938832 0 0 0
1518 1 8.713166913301823 -4.871683172768632 -8.029562483274987 0 0 0
1602 1 9.060135610032265 -3.0113504961128275 -11.62975892420653 0 0 0
969 1 13.874664245186747 -7.136008768992096 -10.923214562176058 -1 0 0
1095 1 -9.50938956437737 -2.755650909281691 -10.57570035797475 0 0 0
1088 1 -12.573242029647817 -1.080235113696915 -12.404145182072783 0 0 0
1093 1 -11.034432159539318 -0.8690203332055848 -9.923597743031767 0 0 0
1188 1 -11.775816332826196 1.0628422494557714 -11.213433915761204 0 0 0
1200 1 -10.228204354335361 1.4177360149846212 -8.650038177773894 0 0 0
1189 1 -9.307700381852317 1.2046714338365678 -10.97402539302627 0 0 0
1190 1 -10.139277471639243 -0.8783608185858274 -12.01799113390658 0 0 0
1091 1 -12.849149526470274 1.157790736463788 -9.061561752308542 0 0 0
1092 1 -13.581488125915309 -1.0848257177960967 -10.185053805689574 0 0 0
32 1 -10.765605644831929 0.9375975638079641 -13.47238042829268 0 0 1
1780 1 14.19500015461866 0.9384080569966944 -11.493527548746478 0 0 0
1202 1 -8.574705421609774 -0.4379466450877558 -9.539732567595081 0 0 0
1205 1 -4.513618159112216 -2.7292683712331733 -10.294668120966955 0 0 0
1204 1 -6.980909380176621 -2.7683667180373313 -10.59671635210792 0 0 0
1193 1 -6.170755298736417 -3.0095094232821857 -12.778349507662156 0 0 0
1192 1 -8.59672793954925 -2.977331570927509 -12.867117126592428 0 0 0
1191 1 -7.683535857814686 -0.9134770622496777 -11.841235785124027 0 0 0
1326 1 -5.216596606164979 -0.8504278201041284 -11.656573054521587 0 0 0
1203 1 -6.047859071325481 -0.615057585155288 -9.389853183360687 0 0 0
1344 1 -3.687445471357755 -0.5902563167510309 -9.20830624070237 0 0 0
1201 1 -7.594079483439049 1.6634763919688655 -8.381090847883534 0 0 0
1342 1 -5.1707521645234085 1.5587589798526107 -8.283555229249961 0 0 0
163 1 -5.827888691465343 1.0451890009312912 -13.056880337919488 0 0 1
1313 1 -8.346035800590375 1.019590819161321 -13.306178299191817 0 0 0
1325 1 -4.402740305206432 1.3298347499669205 -10.493538857859606 0 0 0
1324 1 -6.917621708728553 1.3395208837295574 -10.776208925588765 0 0 0
284 1 -3.3991354330179 -3.1296201746577257 -12.494147452966788 0 0 1
1456 1 -3.4423729558552125 1.1886331335897005 -12.884854472246493 0 0 0
1223 1 -5.406613768249992 -2.3991157787123303 -7.88098343643208 0 0 0
1106 1 -7.837613478352573 -2.3579461267020445 -8.32749342649916 0 0 0
1473 1 1.4938053391213888 -2.9372259011518835 -12.004629202684624 0 0 0
1329 1 -1.0078990462471822 -2.9656468290991906 -12.36124344551636 0 0 0
1347 1 0.5444204822772374 -2.740148825743603 -9.877523220986147 0 0 0
1346 1 -2.055007849009291 -2.7021886076269706 -10.021843198236859 0 0 0
1328 1 -2.6986420516374814 -0.7739233478707419 -11.455814036807212 0 0 0
1471 1 -0.1739368908899941 -0.7391879634211129 -11.253288922916738 0 0 0
1345 1 -0.9971907916133684 -0.6595844749359223 -9.052157388087181 0 0 0
1489 1 1.389945577987966 -0.6955570842146699 -8.78421230786745 0 0 0
1457 1 -0.8725474976022927 1.1505480545990316 -12.641273598903151 0 0 0
1582 1 1.6389909296300047 1.139561441364247 -12.486605469543678 0 0 0
1327 1 -1.9211308871040682 1.3131244176245556 -10.366777277582807 0 0 0
1470 1 0.5416411860556956 1.2458505715968258 -10.172641896000773 0 0 0
1343 1 -2.753167069444352 1.4642771871666955 -8.07304077607241 0 0 0
1472 1 2.317468171047121 -0.7611623103752319 -11.091382519960543 0 0 0
1487 1 -0.27610435191689575 1.4906593535502797 -7.942954354344614 0 0 0
270 1 0.8234453513711291 -0.9894777005273845 13.507719310274476 0 0 0
1474 1 3.941590320675907 -2.970189899772974 -11.901518007847486 0 0 0
1492 1 5.576458690835896 -2.7132052941621705 -9.584898659052278 0 0 0
1491 1 3.110697048445406 -2.7159359469919 -9.577653500922438 0 0 0
1600 1 7.418203743161179 -0.9278792634225912 -10.79825718382431 0 0 0
1598 1 4.90231492211149 -0.7808439003707459 -10.888398553146732 0 0 0
1596 1 3.1633799560579234 1.2602830247261103 -10.056307259317727 0 0 0
1585 1 5.743658835637682 -0.9669865279246324 -13.177326201091928 0 0 0
1584 1 3.3077582111175765 -1.0949779680493492 -13.396855593896044 0 0 0
1583 1 4.20676953105669 1.112464692881277 -12.275920749181648 0 0 0
1692 1 6.674852732675202 1.0368013167114736 -12.083576473936347 0 0 0
1597 1 5.5426576722225 1.2644779110666136 -9.807905742779356 0 0 0
1490 1 3.955835901752387 -0.6895859978416894 -8.583211698020122 0 0 0
1618 1 6.3784805955789174 -0.783018190904647 -8.420249976630775 0 0 0
1494 1 8.100869300333628 -2.91095829625087 -9.225103604573095 0 0 0
1728 1 12.997974848997004 -3.0540337192279523 -9.071123698372414 0 0 0
1599 1 8.103767676573884 1.1592912575433818 -9.70595481613042 0 0 0
1713 1 11.579986881702037 -3.1799026805849415 -11.473113835533617 0 0 0
1622 1 10.473907135081078 -2.852606509191892 -9.237568502672666 0 0 0
563 1 8.283089590228872 -1.1187630543837557 -12.99736328398106 0 0 1
1620 1 8.792393120412108 -0.7343292686892262 -8.258246327041368 0 0 0
1601 1 9.90689515342044 -0.9184098339630289 -10.57143133630818 0 0 0
1621 1 11.311969200239613 -0.8158393825446826 -8.120022162783474 0 0 0
1694 1 9.177899263792174 1.085995085828726 -12.060562101494662 0 0 0
1695 1 11.664269287228358 1.0243537219511136 -11.806228973905812 0 0 0
1711 1 10.694002980638267 1.1673073993710332 -9.436133376898503 0 0 0
1712 1 12.296152512961157 -0.935811405572677 -10.316800829533022 0 0 0
1793 1 13.123767538725023 1.1517513538832773 -9.363997454503536 0 0 0
561 1 10.87334976068848 -1.0711413108594154 -12.827480889876815 0 0 1
1697 1 13.333429966403383 -1.0960750912969353 -12.552832160171405 0 0 0
1781 1 13.964689751097676 -3.0980933211117527 -11.226945118153509 0 0 0
1311 1 -9.978895255047451 3.0103001998242895 -12.413816037172493 0 0 0
1187 1 -11.022545776324034 3.2984317995073873 -10.193864182671918 0 0 0
1183 1 -12.421426246039346 3.1204613529737806 -12.78197838706449 0 0 0
1186 1 -13.276027839242756 3.204774791133172 -10.460600734366592 0 0 0
1185 1 -12.475180169263078 5.208071846817862 -9.392694028703033 0 0 0
1309 1 -11.521507978643207 5.11134749787028 -11.643120525085939 0 0 0
1310 1 -8.922430548908139 5.244262079121949 -11.247809384512696 0 0 0
1320 1 -9.951693828583869 5.36247066486802 -9.059294081643642 0 0 0
1308 1 -10.686272417262288 7.235143801884533 -10.413779507242245 0 0 0
1443 1 -9.670600359559943 7.222963558509242 -12.616290178519717 0 0 0
1304 1 -12.125066786264263 7.113127495100002 -12.94593491720606 0 0 0
1306 1 -13.239795575478144 7.28212222380456 -10.681305539390442 0 0 0
1307 1 -13.948647310256378 5.035003998375526 -11.847761775358357 0 0 0
1318 1 -11.67809086939614 7.365802895634179 -8.14320598273158 0 0 0
1184 1 -14.120779923290371 7.150952368086951 -8.48567649760274 0 0 0
1319 1 -9.178353692948185 7.553158599612782 -7.814731000313347 0 0 0
1322 1 -8.465568311659293 3.2636519038473075 -9.917817357755764 0 0 0
1450 1 -8.228380919059578 7.484158474769732 -10.253836836337227 0 0 0
1454 1 -5.012700007848617 3.1318856029454025 -11.87956345527521 0 0 0
1312 1 -7.491108794948215 3.128077226009058 -12.11288626037636 0 0 0
1323 1 -5.888586083080629 3.550280737896511 -9.683115832614547 0 0 0
1452 1 -6.542243024395351 5.4013988942479365 -10.924947910470852 0 0 0
1453 1 -4.147385024344986 5.2216647291402225 -10.914028575493116 0 0 0
1321 1 -7.458402268560051 5.626591535047368 -8.702565138225482 0 0 0
1465 1 -5.083762817249461 5.569941186491398 -8.467369889028411 0 0 0
1445 1 -5.646435660795667 5.116705402817768 -13.266793707140172 0 0 0
1568 1 -4.761032523534102 7.273338459596147 -12.126499716657818 0 0 0
1566 1 -7.168570563287384 7.09498005017182 -12.514362538360905 0 0 0
1451 1 -5.806091346541411 7.584871412580728 -9.927210399812012 0 0 0
1467 1 -3.528396878424928 3.3729328042569477 -9.4218847489953 0 0 0
1576 1 -3.3455502696447184 7.481463492821234 -9.681443137122095 0 0 0
1570 1 -3.3007536945300355 5.067641637910651 -13.220761320242326 0 0 0
1444 1 -8.11052033251288 5.129695597294138 13.51088726965675 0 0 -1
1469 1 -0.985462239878709 3.514880164578429 -9.203725446805933 0 0 0
1594 1 1.573099085559173 3.363318566812012 -9.123140906004629 0 0 0
1455 1 -2.5264115087851486 3.2976745247032255 -11.73888797456297 0 0 0
1578 1 -1.7335777997614432 5.371707561700262 -10.715178394198134 0 0 0
1571 1 -0.7982693617318368 5.265777023414426 -12.922157256090589 0 0 0
1580 1 -0.000854287863921499 3.3227754229712865 -11.401849812897506 0 0 0
1592 1 0.745684738362586 5.499106090990221 -10.30889723380544 0 0 0
1579 1 1.9460018509892656 5.137965005172294 -12.599438095788589 0 0 0
1569 1 -2.4143622406206333 7.21796178154694 -12.058340004271745 0 0 0
1674 1 0.23237809826093248 7.142203293097836 -11.831934029025657 0 0 0
1466 1 -2.6112482947815217 5.494017998212804 -8.439719257908159 0 0 0
1686 1 1.6544808044639954 7.493260280523369 -9.379660323124458 0 0 0
1577 1 -0.7236103610974052 7.439764852061714 -9.640188685560002 0 0 0
1468 1 -0.24360734824784913 5.5836716231287795 -8.155578102896278 0 0 0
1593 1 2.395304801235625 5.465868585686124 -7.996821558157739 0 0 0
1581 1 2.443820193304866 3.2771741437300825 -11.338561183479236 0 0 0
1675 1 2.6547865323355317 7.259702583722994 -11.646996499206981 0 0 0
1595 1 4.006066079916458 3.238777430354059 -8.922814313954056 0 0 0
1688 1 3.3066283800017686 5.361147509819435 -10.189327523368926 0 0 0
1689 1 5.807521692637721 5.298401877566235 -10.152622829381723 0 0 0
1690 1 5.018366509674234 3.247606670816346 -11.125314056506355 0 0 0
1679 1 4.350596835093704 5.161456485009776 -12.546908582130893 0 0 0
1762 1 6.889835504567344 5.097620570769646 -12.380017114862916 0 0 0
1707 1 6.469328796065049 3.2849695738320186 -8.8985729688033 0 0 0
1691 1 7.545190544014726 3.085183544986748 -11.163517446969461 0 0 0
1761 1 5.214335867884177 7.185849984027154 -11.48806577525774 0 0 0
1774 1 6.607327971613838 7.356106445489612 -9.203545300295353 0 0 0
1687 1 4.1440058668803985 7.5359307619927804 -9.215697348035402 0 0 0
1823 1 7.669759150811593 7.149355234286286 -11.311207199100966 0 0 0
1763 1 6.109516330749564 3.1045916573226116 -13.41144167459889 0 0 0
1705 1 4.813677954939372 5.472129010527535 -7.8627967151769615 0 0 0
1776 1 8.363103952111597 5.173688002125921 -10.005500565684068 0 0 0
1779 1 12.544695937814275 3.100888530046131 -10.698384326048867 0 0 0
1710 1 11.585874866030267 3.271026422945333 -8.420351313093493 0 0 0
1765 1 11.017702756478858 2.945725081742932 -13.098901842129182 0 0 0
1693 1 10.092987181877412 3.0782951492793202 -10.84471769626046 0 0 0
399 1 8.51034645783762 2.9216223829634558 -13.332227308327601 0 0 1
1709 1 8.970919935845092 3.3472728538077803 -8.619227328814752 0 0 0
1778 1 10.852566676859347 5.233146561006421 -9.790686310097978 0 0 0
1764 1 9.307942312449907 4.94531523360833 -12.207985594146038 0 0 0
1827 1 11.883079493561421 5.039362592104386 -12.11584973073017 0 0 0
1825 1 10.17360888788695 7.105430056130697 -11.149515613409699 0 0 0
1826 1 12.655001607083832 7.113079396431203 -11.010838129918138 0 0 0
1777 1 11.71828983173814 7.221830638637041 -8.660488802645615 0 0 0
1835 1 13.336568657006861 5.159022460308407 -9.664373307869077 0 0 0
1775 1 9.13462685646645 7.382814990919183 -8.935558098851725 0 0 0
1303 1 13.69418197680167 7.064858023754837 -13.23910361731603 -1 0 0
1182 1 13.532132730654467 3.005020705679531 -12.841764767913816 -1 0 0
1818 1 11.199627216437726 7.022175031956301 -13.365363758796237 0 0 0
1817 1 8.720411158350874 6.998418113749729 13.40653388496124 0 0 -1
1090 1 14.141071646474735 3.167477481381244 -8.26402076567227 -1 0 0
1448 1 -9.81175376479429 9.425402217139876 -9.361272271195915 0 0 0
1441 1 -11.37796982632435 9.16023891652426 -11.857471061738693 0 0 0
1440 1 -10.571082299649104 11.352687338829213 -10.696128284345853 0 0 0
1446 1 -12.307926395702456 9.304463879580712 -9.55110724724479 0 0 0
946 1 -12.453738154564137 13.371343025849058 -10.190117621969463 0 -1 0
1459 1 -11.624797990220085 11.567510243657885 -8.530078229941925 0 0 0
1439 1 -13.02448192540606 11.158641315439265 -11.019009004083205 0 0 0
1561 1 -9.696175103534697 11.089192647885124 -12.989000816397118 0 0 0
1559 1 -12.055649843271095 11.115042973364812 -13.121685801942235 0 0 0
1447 1 -9.113856643510594 11.619510514929498 -8.23404254731053 0 0 0
1442 1 -8.91013426291492 9.376637051692317 -11.60419741052042 0 0 0
3 1 -11.334935263574176 13.318608162863995 -12.222100456754639 0 0 1
1560 1 -8.74751300770556 13.226632870285105 -12.06521456079684 0 0 0
5 1 -13.88418565230038 13.20059211754818 -12.4896175968606 0 0 1
1302 1 -13.887581638646006 9.092350390665906 -12.04700858497253 0 0 0
978 1 -9.788311742621582 13.460943557177448 -9.676710489373287 0 -1 0
1316 1 -13.962334822134617 11.226094117102974 -8.809406604077408 0 0 0
1564 1 -8.112749905852148 11.502829799364118 -10.634775815939925 0 0 0
1449 1 -7.40720107850645 9.618132008943434 -9.022911274670818 0 0 0
1565 1 -6.330780382895663 9.231088337424254 -11.493212201088586 0 0 0
1567 1 -3.8769216437604754 9.472132057335454 -11.269611368607237 0 0 0
1664 1 -4.6436171346040975 11.34756514296831 -12.528593700878695 0 0 0
1574 1 -4.887639453146507 9.664634141052659 -8.84810101621208 0 0 0
1668 1 -5.685652990194505 11.395024510964316 -10.378628396448146 0 0 0
1562 1 -7.15444400205647 11.27584316736251 -12.912837353092858 0 0 0
1662 1 -6.327867833482391 13.419554484180075 -11.80403807319663 0 0 0
1663 1 -3.732617392203208 13.381868181828892 -11.60049293978554 0 0 0
1670 1 -3.115703179023397 11.466018240321205 -10.188479898440708 0 0 0
1572 1 -6.495734996636691 11.927825858651246 -8.091337816588018 0 0 0
1563 1 -7.334806146649643 13.720465808603024 -9.512897794777537 0 0 0
1056 1 -4.728232754866463 13.590222061010934 -9.35363248903776 0 -1 0
1665 1 -2.1178851263639107 11.287865140197226 -12.345230103069193 0 0 0
1672 1 -1.3561898102197798 9.337461918053428 -10.982966682907591 0 0 0
1671 1 -0.6336457551843147 11.576060307558304 -9.777075953030788 0 0 0
1673 1 1.0568558840270903 9.356903143020997 -10.675120985257408 0 0 0
1749 1 0.4190271339803733 11.186976145603136 -12.176160296402804 0 0 0
1747 1 -0.35639598193022515 9.09756022962943 -13.171474887954862 0 0 0
1575 1 -2.4293427097614213 9.628452810737048 -8.730141235403568 0 0 0
1684 1 0.12442414739751229 9.558723900643066 -8.520954059064806 0 0 0
1757 1 1.9970209970852366 11.480706896655338 -9.837573215346762 0 0 0
1750 1 1.9736144620659957 9.31198468493843 -13.02224328514092 0 0 0
1135 1 1.1343368791032962 13.400347383310518 -11.214604534155196 0 -1 0
1748 1 -1.2877298944913829 13.41204753275758 -11.264093381304624 0 0 0
1755 1 0.20338094360567283 13.802157168652673 -8.96454665652093 0 0 0
1669 1 -2.2114201675464056 13.629547701904755 -8.98578577890164 0 0 0
1685 1 2.64143589928905 9.566570176259237 -8.38481208532018 0 0 0
123 1 2.1083374818701834 13.34818936978272 -13.253889793491714 0 0 1
1756 1 2.6228700042129915 13.604085845860126 -8.618133122113226 0 0 0
1751 1 2.898449004422922 11.374715821245434 -12.07826295880263 0 0 0
1753 1 4.394013133624362 9.075341480027202 -12.77455284892426 0 0 0
1759 1 3.5015883789093607 9.283131739361423 -10.610521677636067 0 0 0
1760 1 5.996174949778805 9.343718693279971 -10.449779239051825 0 0 0
1813 1 5.321454667756491 11.160208597344784 -11.841450449667871 0 0 0
1758 1 4.36281938302491 11.329983618255572 -9.54336986743161 0 0 0
1821 1 6.837130352687865 11.404685159179486 -9.394731158525929 0 0 0
1814 1 7.013004066597901 9.085887124794006 -12.724484746781252 0 0 0
1811 1 3.629100406671718 13.343667616392807 -10.888074411534546 0 0 0
1772 1 5.099193206435938 9.498950196511256 -8.18703650328553 0 0 0
1810 1 4.5932071314662934 13.190966534718633 -13.178000474921758 0 0 0
1379 1 7.153122484951265 13.170599441205667 -12.946416740016655 0 -1 0
1812 1 6.048383624593573 13.506067863087 -10.866579198917439 0 0 0
1819 1 5.239428911075947 13.451772797372733 -8.499906856870062 0 0 0
1851 1 7.813360569951559 11.260704331699902 -11.627288986926798 0 0 0
1820 1 7.730651712193641 13.421903243337347 -8.345841352258915 0 0 0
1773 1 7.486145897977661 9.375769541825683 -7.905775546872957 0 0 0
1822 1 8.495610263110727 9.304149935812891 -10.106244359473664 0 0 0
1859 1 13.666934694212713 9.12925709852162 -9.87969878170739 0 0 0
1855 1 12.045672520749957 9.019458719361097 -12.348018873401136 0 0 0
1824 1 10.991873266837192 9.122610702722259 -9.977950046040291 0 0 0
1816 1 9.55045796867418 9.061310796404648 -12.432308363225964 0 0 0
1853 1 10.410812471449418 11.104616876445824 -11.389085612628993 0 0 0
1854 1 12.887588390383456 11.12261611699832 -11.272442774846969 0 0 0
1858 1 11.950348041171246 11.212757046066567 -8.985371459898513 0 0 0
1852 1 11.033718257195932 13.210163978386419 -10.43520168630574 0 0 0
1856 1 9.27096470958584 11.376620756074185 -9.059533389359467 0 0 0
1857 1 12.570731734930455 13.248466682633307 -7.992289248641727 0 0 0
1305 1 13.479339128462186 13.233639627731883 -10.135869643188343 -1 0 0
1863 1 12.169117337203538 13.103973866108365 -12.567611421005601 0 0 0
1403 1 8.562465026159128 13.384799418065917 -10.546997835228083 0 -1 0
1848 1 9.661136161153998 13.196098398931134 -12.825334706012347 0 0 0
1421 1 10.09751191957287 13.386924968501951 -8.041074160931501 0 -1 0
983 1 -12.551892986313014 -9.1400162093449 -7.174459809668044 0 0 0
984 1 -10.06338227761502 -9.348671648239575 -7.0768188700834225 0 0 0
952 1 -11.843254378675729 -11.03440107564072 -5.835287728323276 0 0 0
996 1 -9.630196204321958 -12.304301115450315 -6.39096843453948 0 0 0
940 1 -12.977271301366526 -11.05460497859227 -3.6113982367660213 0 0 0
958 1 -10.526304614579447 -11.14337279468148 -3.6003739854309096 0 0 0
951 1 -13.669156814624285 -8.948561286629424 -5.104831260806222 0 0 0
994 1 -11.144799628825284 -9.12689773055903 -4.997778775769845 0 0 0
957 1 -12.144070845140778 -8.953112257371528 -2.720600823489507 0 0 0
1004 1 -9.660246842309796 -9.182678888265329 -2.5949670599357866 0 0 0
995 1 -8.884098344612427 -10.010740063079659 -5.0856770823217765 0 0 0
943 1 -9.784148278608754 -13.382516554151753 -2.3358604267409255 0 0 0
941 1 -12.254655830173505 -13.111691933482085 -2.3855239884054384 0 0 0
1332 1 -13.781907065767033 -13.019166491891463 -4.6670182769343285 0 1 0
959 1 -11.108714956590749 -13.16957157508984 -4.546910399751436 0 0 0
953 1 -12.454972003177557 -13.192336051230187 -6.679558661961175 0 0 0
954 1 -10.56131047592809 13.830170884326076 -7.235128125716755 0 -1 0
986 1 -8.188918707265213 -10.687653648580977 -7.47538376957101 0 0 0
1054 1 -5.616107595008836 -10.607577425917372 -7.371038954288174 0 0 0
965 1 -8.280535581217197 -12.23096175724488 -3.919964172578654 0 0 0
997 1 -6.494511384303949 -10.161166878640412 -5.173893561888347 0 0 0
1069 1 -4.153765864646877 -10.250814445039591 -4.874861876498041 0 0 0
966 1 -5.890987480861318 -12.130623099451544 -3.6725432391873447 0 0 0
1006 1 -7.522608372171197 -10.05211610033292 -2.90256615430733 0 0 0
1009 1 -3.4195388868606535 -12.039134252467184 -3.447161786612689 0 0 0
999 1 -4.711760978521827 -12.404471169323662 -5.969966425469772 0 0 0
960 1 -7.197754192945267 -12.393782800591438 -6.079611594985927 0 0 0
1007 1 -4.958736836497151 -10.055174283254884 -2.5883098965733033 0 0 0
1501 1 -7.530014086273946 -14.010210673142865 -2.4318101966761496 0 1 0
1150 1 -3.1070411682348613 -10.540608261783111 -7.183369776077343 0 0 0
1154 1 1.0965536519142187 -12.581201638730736 -7.829299798601822 0 0 0
1070 1 -1.5661031857201326 -10.209349895073007 -4.702903754217056 0 0 0
1071 1 -2.281706679595981 -12.256024593734587 -5.708045057261534 0 0 0
1152 1 -0.5839153154025052 -10.429889277999854 -6.938366436103547 0 0 0
1072 1 -0.023483195834089088 -12.44512374454265 -5.522070760080833 0 0 0
1166 1 1.0141322657589793 -10.426004851166429 -4.461064738943369 0 0 0
1082 1 1.6938938072921133 -12.436037429468012 -3.125280197488328 0 0 0