LAMMPS data file via write_data, version 23 Jun 2022, timestep = 0

1863 atoms
3 atom types

-14.199277629065612 14.199277629065612 xlo xhi
-13.8506191576768 13.8506191576768 ylo yhi
-13.972682019896942 13.972682019896942 zlo zhi

Masses

1 55.847
2 1.008
3 1.008

Atoms # atomic

13 1 -13.367448990060112 -12.091985777883092 -12.27381439264391 0 0 0
22 1 -10.947232120441923 -11.584968474425716 -12.227142708776352 0 0 0
243 1 -9.43740594204284 -13.336337629571103 -13.423979142505182 0 0 1
17 1 -8.760677131270283 -13.133105509659275 -11.216373037671108 0 0 0
37 1 -8.45911343761765 -10.917634049617293 -12.302217291513223 0 0 0
203 1 -13.9624802057082 -4.055127789307768 -0.06485162071941453 0 0 0
242 1 -7.060179264121251 -12.591507291240523 -13.33573325473653 0 0 1
32 1 -6.359371218491343 -12.169918109550853 -11.000916248049055 0 0 0
260 1 -4.812682908060969 -11.807400532655002 -13.362985974103603 0 0 1
27 1 -4.064086247755876 -11.642407519590028 -11.190604988951373 0 0 0
158 1 -2.705851905578921 -13.323413414118889 -12.405271449388133 0 0 0
29 1 -2.403954566353809 -11.079059589103313 -13.400679371773268 0 0 0
47 1 -1.7320090028604493 -10.871202697759841 -11.100240378339567 0 0 0
157 1 -0.34380098354494315 -12.536732434385828 -12.192099098761723 0 0 0
420 1 -4.698856181756872 -0.9800972219272452 -0.1412278687905868 0 0 0
41 1 -12.884784531612837 -10.069408971976365 -13.255463403539077 0 0 0
40 1 -12.137259248647874 -7.690412630652753 -12.070577628269904 0 0 0
21 1 -12.354991383588834 -9.801106333085688 -10.956961565979347 0 0 0
38 1 -10.623030865295565 -9.372766440407442 -13.291030072964446 0 0 0
36 1 -9.824377773764226 -9.133773113536936 -11.055376675872857 0 0 0
63 1 -9.833922759578083 -6.938088401641478 -12.045507049583295 0 0 0
257 1 -8.296351546272142 -8.584250216810286 -13.28255489269688 0 0 1
33 1 -6.177614596450693 -10.089286104493874 -12.137248047868027 0 0 0
60 1 -5.960688055453083 -7.847708622135524 -13.198326297482302 0 0 0
58 1 -7.4860905861004685 -8.41249880096531 -10.977770798917021 0 0 0
54 1 -3.8161418537883236 -9.318184500970723 -12.120564730276854 0 0 0
55 1 -3.643362161111698 -7.18187727430345 -13.228099823779637 0 0 0
53 1 -5.152621114367184 -7.558874761959138 -10.804527676938761 0 0 0
78 1 -2.8375107213113218 -6.973983003545227 -10.915147777961401 0 0 0
48 1 -1.3991502860331568 -8.630168607095047 -12.012499588396057 0 0 0
270 1 -12.01358545101085 -5.4699627337874475 -13.078867913286189 0 0 1
1108 1 -13.450553899976962 -3.814961709077995 -12.000568850816927 1 0 0
39 1 -13.482911978000862 -5.907346474910853 -10.886891710415073 0 0 0
64 1 -9.717695968623202 -4.786591902078698 -13.033796310990883 0 0 0
62 1 -11.112305455563806 -5.098271359344508 -10.771390497355055 0 0 0
89 1 -8.901193711129615 -4.600871974607649 -10.825800560412532 0 0 0
59 1 -7.424584155904286 -6.149320268609786 -11.984581273874122 0 0 0
91 1 -7.408957285842686 -4.013737841433336 -13.0450019986634 0 0 0
84 1 -6.569657251378872 -3.7325797632493707 -10.634295676010048 0 0 0
85 1 -5.09630560522559 -5.394114471024526 -11.940482958279768 0 0 0
79 1 -2.7847413675072517 -4.705172625097251 -11.85046272448664 0 0 0
111 1 -0.3476962011641742 -4.019636752129131 -11.859517794535531 0 0 0
80 1 -1.3869900851063726 -6.3128750965195595 -13.206982870228416 0 0 0
73 1 -0.5616133302530759 -6.130714834725698 -10.841921234265017 0 0 0
66 1 -13.219801672652213 -1.510319445710829 -13.12265799337224 0 0 0
93 1 -12.370905136243534 -1.3113632122318233 -10.840936232221749 0 0 0
95 1 -11.075340225980902 -3.0294470863598093 -11.747569172182773 0 0 0
67 1 -10.723899060154064 -0.9009453154484728 -13.000141799481897 0 0 0
90 1 -8.640469052605564 -2.339793355586698 -11.709750839907606 0 0 0
126 1 -10.181824540488911 -0.5612198586625556 -10.461500081245996 0 0 0
123 1 -6.260145550305901 -1.5028994670975653 -11.745761128489864 0 0 0
142 1 -1.554948519735035 -0.17732592535806013 -4.647707611388066 0 0 0
86 1 -4.906674853357373 -3.2291725263044384 -12.987870307448633 0 0 0
118 1 -3.9064773011265874 -0.8185697107483669 -11.55747850650495 0 0 0
117 1 -4.076980972688133 -2.9949935710755646 -10.695353178628427 0 0 0
119 1 -2.658782771739043 -2.5750232568165288 -12.945861403842809 0 0 0
110 1 -1.6840724274341703 -2.231014604724754 -10.632272368353313 0 0 0
26 1 -4.223652085022028 -13.662045242632527 -9.853907451060088 0 0 0
477 1 -11.121470889185455 -13.50553694050472 -4.078077235737458 0 1 0
164 1 -12.47886745627184 -12.083254008854714 -9.947756398293876 0 0 0
175 1 -11.659035190627314 -11.809789640788466 -7.735911795259426 0 0 0
1147 1 -14.096515154356103 -3.9186799409234236 -7.3765434627855155 1 0 0
35 1 -10.05509907373097 -11.202077316036867 -9.990006041585428 0 0 0
162 1 -10.276079396525123 -13.525048597042279 -8.888705740261663 0 0 0
172 1 -9.359322335775348 -11.159450244210607 -7.577442399991821 0 0 0
30 1 -7.9451100716077905 -12.757914798793523 -8.890663589383447 0 0 0
31 1 -7.682545788680599 -10.550249688497697 -9.781913319055638 0 0 0
25 1 -5.626502722985572 -12.004001375068336 -8.766862697624871 0 0 0
45 1 -3.442102547007929 -11.215690158058754 -8.845928354699812 0 0 0
159 1 -3.335476147150331 -13.493612342001407 -7.552120918777608 0 0 0
601 1 -8.367791561814188 -0.1106089476425609 -5.878481308986331 0 0 0
153 1 -1.9219049376250954 -13.027092420477057 -10.052462972576098 0 0 0
152 1 -0.9771072080963652 -10.526049279933202 -8.723048876056826 0 0 0
1068 1 -1.0764648920458821 -12.689275356717676 -7.663360211219175 0 0 0
1013 1 -13.832198610572677 -10.282521974878314 -8.573945177198805 1 0 0
1004 1 -13.73027838748821 -8.070489217118835 -9.914140553799314 1 0 0
192 1 -12.80071632937196 -7.838889342164714 -7.455033077278855 0 0 0
176 1 -11.544484414470844 -9.528903649912795 -8.746445789102939 0 0 0
61 1 -11.396025877787494 -7.340428581240345 -9.920615989300213 0 0 0
56 1 -9.135432689538955 -8.958147919023709 -8.623043887021673 0 0 0
191 1 -10.487808510740145 -7.100235656145949 -7.55994769902416 0 0 0
50 1 -6.942697262851916 -10.314446248684728 -7.491838664137396 0 0 0
51 1 -6.674574184694605 -8.07711119234094 -8.558975058557671 0 0 0
52 1 -5.424918463062493 -9.801080551860021 -9.896443608009697 0 0 0
76 1 -4.368914211681155 -7.470277651556759 -8.500591538151316 0 0 0
46 1 -3.1990530958666525 -9.106876688519645 -9.815627938208182 0 0 0
44 1 -4.690760925899992 -9.63024739952886 -7.412894816725005 0 0 0
72 1 -0.7680761286614555 -8.311829920062642 -9.675291942813024 0 0 0
70 1 -2.243884839642158 -8.932010572153203 -7.417045614509308 0 0 0
193 1 -12.689386422939215 -5.82838901499103 -8.530664016233644 0 0 0
211 1 -12.511925467908304 -3.4397704215011107 -9.595741791983272 0 0 0
141 1 -2.9545721352570027 -0.5954977306996234 -2.6394779642575426 0 0 0
57 1 -9.043330675290402 -6.7984474348105115 -9.731864223547998 0 0 0
87 1 -10.408226727315231 -4.9487512753502045 -8.480008406035143 0 0 0
83 1 -6.654505389035347 -5.960307531743657 -9.713752960545161 0 0 0
82 1 -8.09797527395851 -4.361605588555319 -8.406380518465639 0 0 0
81 1 -8.119762938291075 -6.472623810633433 -7.37381791248252 0 0 0
75 1 -5.865196780179572 -5.6741094060665755 -7.361413992958022 0 0 0
115 1 -5.748003066767778 -3.4014847442776546 -8.309605415821189 0 0 0
77 1 -4.363417197853369 -5.217618884619002 -9.425554672593968 0 0 0
107 1 -3.4293836449369923 -5.014550791291237 -7.203901507621396 0 0 0
109 1 -2.0162924266386906 -4.487638262103534 -9.550566124696918 0 0 0
71 1 -2.134481073059547 -6.69889256619794 -8.438978085326417 0 0 0
102 1 -1.105466818226601 -4.2765747633103395 -7.230342135788043 0 0 0
587 1 -11.665066980087698 -1.0674393333577044 -8.328057977169538 0 0 0
125 1 -13.924942069590402 -1.675476234424531 -8.382363485036901 0 0 0
1154 1 -11.682065455868809 -3.2684072344079915 -7.197879790567395 1 0 0
88 1 -10.140781857586418 -2.777984990384047 -9.470291465596382 0 0 0
121 1 -9.253110264923192 -0.3558583109782507 -8.237159222586172 0 0 0
120 1 -9.31343961180842 -2.570250081067252 -7.226376006361957 0 0 0
122 1 -7.828848763821517 -2.075394584476605 -9.368957857767914 0 0 0
114 1 -7.124859452376589 -1.7620318273848685 -6.971960363843566 0 0 0
116 1 -5.598768293328112 -1.189205624208336 -9.434308205400033 0 0 0
138 1 -3.0529296196527493 -0.671686662346513 -9.3706789236835 0 0 0
108 1 -3.3386194760723704 -2.7804710928280603 -8.328734224691464 0 0 0
137 1 -4.730359673976704 -0.9835407470817827 -7.142159522465744 0 0 0
135 1 -0.9844048816071354 -2.096505934008123 -8.254535269638414 0 0 0
134 1 -2.3203114077898626 -0.3970923154371029 -7.145714990444751 0 0 0
173 1 -13.254545893697683 -12.2603609975282 -5.294280774769346 0 0 0
723 1 -2.379381489982384 -0.3976107640668687 -0.20049917319707156 0 0 0
171 1 -9.517709353799475 -13.212982485831596 -6.421776247476611 0 0 0
170 1 -10.989213637076299 -11.505618562591657 -5.285605949668181 0 0 0
166 1 -8.827369262163263 -13.100528427480084 -4.127603571224803 0 0 0
167 1 -8.520538177080352 -10.856144354730898 -5.219570160614785 0 0 0
24 1 -7.130289975886239 -12.514677243361739 -6.376865948311119 0 0 0
19 1 -6.337699754508027 -12.353045322730825 -4.00705145414711 0 0 0
43 1 -4.824996595132456 -11.776069911786346 -6.258626108359771 0 0 0
10 1 -3.9739015612578097 -11.598551119240417 -4.051314332585257 0 0 0
156 1 -0.331700283497975 -12.672680044387828 -5.232067993362342 0 0 0
154 1 -2.4614715493543535 -11.164075448294918 -6.418625485674074 0 0 0
155 1 -2.7256331813898917 -13.312742163368599 -5.181282992774078 0 0 0
148 1 -1.7198986563771683 -10.868984300053725 -4.0906927164555515 0 0 0
174 1 -12.877164403689955 -10.085124406819707 -6.5045461596339385 0 0 0
188 1 -12.439974438393765 -9.839870650524777 -4.145556700297297 0 0 0
189 1 -12.065797824102443 -7.723656855898906 -5.173614693909354 0 0 0
190 1 -10.553142859001719 -9.371657652169912 -6.479840198078515 0 0 0
186 1 -9.896693284070041 -9.165542576304674 -4.039097258921162 0 0 0
206 1 -9.749802877213556 -6.887658537200231 -5.136289454621691 0 0 0
187 1 -8.300488529254414 -8.614181556774149 -6.32627552870663 0 0 0
74 1 -5.946857761845827 -7.831937858286639 -6.178956710556542 0 0 0
181 1 -6.164052463408709 -10.047106888958455 -4.981246960507157 0 0 0
201 1 -7.676750371294118 -8.32743960999213 -3.93364721281141 0 0 0
69 1 -3.581060572852218 -7.229472497134392 -6.194679900110741 0 0 0
68 1 -3.7277140910791466 -9.370388816338904 -5.080156956936737 0 0 0
197 1 -5.267582818026504 -7.678057879774881 -3.9226906508176675 0 0 0
99 1 -2.8958701898006716 -6.981120174546865 -3.866391469223821 0 0 0
140 1 -0.696581877901691 -0.028277402815509944 -2.3636160744993067 0 0 0
147 1 -1.4957353562356204 -8.668206125415544 -5.009810951724322 0 0 0
210 1 -11.812838041189043 -5.495875819033673 -6.239452040758229 0 0 0
208 1 -13.466037233338007 -5.894669674654943 -3.867915017317621 0 0 0
209 1 -13.314392338438948 -3.75446240611293 -5.1129723527081445 0 0 0
207 1 -9.518965231577809 -4.697418178376653 -6.152640387863589 0 0 0
205 1 -11.11630639457125 -5.243499845796459 -3.7999965798133015 0 0 0
221 1 -8.765050690192737 -4.480525265995269 -3.835505586365965 0 0 0
113 1 -7.177773377859608 -4.159291625066373 -5.955924883389553 0 0 0
202 1 -7.2304174595971915 -6.197905614249164 -4.962501216038403 0 0 0
218 1 -6.364971234245467 -3.739108932462546 -3.745044555373058 0 0 0
105 1 -5.0096704267814705 -5.380561846433752 -5.052438737458784 0 0 0
100 1 -2.675340637148377 -4.821580335242643 -4.9814636490292585 0 0 0
101 1 -1.2660800794666738 -6.472760935312238 -6.233879316105701 0 0 0
129 1 -0.3594640248754484 -4.020627162173852 -4.985429727415571 0 0 0
143 1 -0.46253947753816504 -6.198445689048938 -3.8031091261780983 0 0 0
227 1 -12.950359289504052 -1.4590016938351127 -5.932463684517881 0 0 0
224 1 -12.30584914984976 -1.383237175360776 -3.6238313277386123 0 0 0
226 1 -10.643858359244643 -0.7285042830039803 -6.029179949407146 0 0 0
225 1 -10.931480117092596 -2.986630123551304 -4.88655802520279 0 0 0
235 1 -10.006731346934096 -0.5630092071310582 -3.610719346313319 0 0 0
222 1 -8.617967181064035 -2.3108273257463985 -4.848657899809112 0 0 0
136 1 -6.246819583770044 -1.5425777842578245 -4.771266695771423 0 0 0
49 1 -0.14071114039650467 -10.34948406663698 -13.224876574213898 0 0 0
106 1 -4.853442146894922 -3.2308463054157883 -6.169144603823912 0 0 0
132 1 -3.9510449282948077 -0.892389544453632 -4.819976031542298 0 0 0
131 1 -4.028638570551978 -3.0551655132981157 -3.7962375911373876 0 0 0
130 1 -0.16267074237129542 -1.7654606304340952 -5.9249824093245245 0 0 0
128 1 -1.6273232039780972 -2.3779226294229456 -3.6307371084804725 0 0 0
133 1 -2.501779558807563 -2.5682791526175723 -5.948840377351839 0 0 0
112 1 -0.23640869537864084 -1.8917839187352516 -12.940282328953565 0 0 0
169 1 -12.618032172130306 -11.920137652955292 -2.933960809192776 0 0 0
182 1 -11.769118771399857 -11.777850681571179 -0.5681722274144416 0 0 0
509 1 -4.0643915111932785 -13.712913526252102 -2.847871504996066 0 1 0
184 1 -10.210764923823165 -11.278227069051567 -2.8080853632554916 0 0 0
165 1 -10.44818637792668 -13.383315031188257 -1.7833998729676068 0 0 0
177 1 -9.425048907593489 -11.044829778477125 -0.49221573267473495 0 0 0
178 1 -7.930320015262214 -12.695867399769137 -1.7295787858573988 0 0 0
179 1 -7.915747513556183 -10.592144242358154 -2.842591567222952 0 0 0
589 1 -8.587177601572481 -0.059814821521177564 -12.928670670443802 0 0 0
180 1 -5.442476665172876 -12.044340743053354 -1.7671621486473121 0 0 0
6 1 -3.175028225420469 -11.353365376801143 -1.5794315050007466 0 0 0
16 1 -3.2741704578792934 -13.668209876298485 -0.6422857480655377 0 0 0
14 1 -1.7699368835142888 -13.146749514297715 -2.7676435073403702 0 0 0
505 1 -0.9938969349634892 -12.747011963088385 -0.5132578674692407 0 1 0
8 1 -0.9210296826441216 -10.554943692458135 -1.6502411406662763 0 0 0
168 1 -14.028081054167838 -10.264722556029081 -1.6882251793517735 0 0 0
204 1 -13.804705928995954 -8.08783559478709 -2.8435383966457852 0 0 0
1245 1 -12.975497840781115 -7.836437234189684 -0.4342908935220642 1 0 0
183 1 -11.574489429331571 -9.56168077828656 -1.7088925753802933 0 0 0
185 1 -11.452071526251892 -7.398592603886477 -2.705935515296586 0 0 0
382 1 -10.583079854308698 -7.111459118061914 -0.2883377776282554 0 0 0
199 1 -9.249205756078872 -8.815354914992975 -1.5479252229220997 0 0 0
194 1 -7.066631941886688 -10.316734297766185 -0.52828231888674 0 0 0
195 1 -6.739213414913228 -8.115458710689206 -1.6351665837177105 0 0 0
196 1 -5.433696668035594 -9.931077572372944 -2.675424512173599 0 0 0
5 1 -3.0576097913859215 -9.168269323265047 -2.698375577199167 0 0 0
213 1 -4.525154939903556 -7.419902819420647 -1.6029693667081002 0 0 0
7 1 -4.70746128378029 -9.65304276474993 -0.4013056612142538 0 0 0
144 1 -0.6894290404016381 -8.382236662780773 -2.710812556734272 0 0 0
3 1 -2.3328014374518506 -9.039184455412002 -0.4819598966193137 0 0 0
139 1 -1.0474126285879723 -2.2132672354792504 -1.21916590832625 0 0 0
198 1 -12.665705263002755 -5.653176694787367 -1.4204697062795635 0 0 0
223 1 -12.650929049339814 -3.5310710634036493 -2.6866914247593385 0 0 0
200 1 -9.037945510537142 -6.620058867263036 -2.778033591397179 0 0 0
219 1 -10.405071797782009 -4.938462001786023 -1.575802868813284 0 0 0
230 1 -5.611046951520885 -3.6276360888340484 -1.4897380683889114 0 0 0
217 1 -6.623497666557948 -5.957508625674759 -2.619846712544085 0 0 0
215 1 -8.229732015515314 -6.409933367831937 -0.4577825516022376 0 0 0
216 1 -7.988834907332805 -4.26679980382135 -1.462334610312416 0 0 0
212 1 -5.873469622181142 -5.806460458437847 -0.3499834707920222 0 0 0
214 1 -4.200851032533135 -5.294800968036046 -2.7827810783342066 0 0 0
228 1 -3.5745770513503867 -5.005498783176401 -0.46414233892872936 0 0 0
1 1 -1.10907496679528 -4.333467284051176 -0.2216966629623549 0 0 0
2 1 -2.1494275910483758 -6.705351502748107 -1.4633535187946798 0 0 0
127 1 -1.9273780817520105 -4.519450488175639 -2.597256735266873 0 0 0
403 1 -11.720141268741612 -3.172630536621096 -0.23617891357329768 0 0 0
1575 1 -14.001007739617444 -1.8351588354752781 -1.0807309126119797 1 0 0
234 1 -11.598054758711129 -1.100331588950123 -1.2566416553273623 0 0 0
418 1 -9.357263588521766 -2.5047565735496846 -0.2745971812502024 0 0 0
232 1 -9.253199885328598 -0.31544634857080744 -1.2460165336965972 0 0 0
220 1 -10.22434472065159 -2.765292285939342 -2.587284439558468 0 0 0
722 1 -6.919458607372376 -1.8588902318051517 -0.22890498956884997 0 0 0
233 1 -7.929627878820006 -2.052066147886327 -2.5003463157602592 0 0 0
231 1 -5.357350733121029 -1.3250825601165577 -2.4109875466012625 0 0 0
229 1 -3.3438058393697823 -2.7784045005201463 -1.3272359827988485 0 0 0
146 1 -0.11151697969475194 -10.351172438631101 -6.254026292123472 0 0 0
599 1 -1.5368576111920849 -0.1841421155674805 -11.713834471645264 0 0 0
1014 1 -14.090803832388858 -12.524247437762483 -7.60614076583277 1 0 0
1345 1 -13.36090374649505 -12.194236143090906 1.852002433226783 1 0 0
368 1 -10.929516325631653 -11.37749514242242 1.8234811149308445 0 0 0
857 1 -9.481924535146188 -13.325708023504124 0.5702266402207758 0 1 0
460 1 -8.838355521726351 -13.052713148642566 2.803042007562448 0 0 0
827 1 -11.093241115991884 -13.682335461355292 2.9002188269565874 0 1 0
458 1 -8.603414129153293 -10.834778646301851 1.810258688279852 0 0 0
12 1 -7.118094028177627 -12.564908884108553 0.5721556354914021 0 0 0
456 1 -6.4127806584981295 -12.194318612471108 2.8970925964029934 0 0 0
11 1 -4.741995727697423 -11.849634270654853 0.624028007587782 0 0 0
457 1 -3.981373109893374 -11.583233592357022 2.93099965003133 0 0 0
435 1 -2.5971487276903336 -13.405190590005187 1.7858939728505323 0 0 0
453 1 -2.4379728381784584 -11.109136259222204 0.7875597130916674 0 0 0
9 1 -0.17596930090115315 -12.660781592027293 1.731136506410472 0 0 0
436 1 -1.6687859719949287 -10.922173717391795 2.9990100799561556 0 0 0
920 1 -8.428091319123327 -0.01177586026316746 8.138987026668962 0 0 0
461 1 -13.189208152952986 -10.078659151672372 0.5758801275918248 0 0 0
366 1 -12.157844393948846 -7.573698861341434 1.9565602006824694 0 0 0
359 1 -12.375901937496032 -9.682764564312619 2.920094693754967 0 0 0
386 1 -10.879723623790634 -9.288457499766075 0.6829132970873033 0 0 0
373 1 -10.028482218604957 -9.009461012148591 2.973701169322963 0 0 0
454 1 -8.455700549118491 -8.59080863382237 0.8002642141002827 0 0 0
452 1 -6.315851160527966 -10.092445897283994 1.8922824885793101 0 0 0
450 1 -6.063207032784064 -7.887054312843438 0.7519999858596993 0 0 0
394 1 -7.666501160522737 -8.345437819925387 3.0494080552608143 0 0 0
445 1 -3.7607479136496327 -9.341471631091746 1.9249283235633108 0 0 0
312 1 -3.6140039699017557 -7.035006020456834 0.7974299433269962 0 0 0
451 1 -5.281100727246651 -7.59127700216062 2.9823154839996793 0 0 0
446 1 -2.8602136905682425 -6.9613331981379 3.1031885696281716 0 0 0
444 1 -1.331406062002861 -8.80844421115918 1.8368123323502807 0 0 0
1262 1 -11.929054752971098 -5.425286080976798 0.940476004427282 1 0 0
388 1 -13.33196848722991 -3.758331666554355 2.0969829826450574 0 0 0
367 1 -13.546015709613695 -5.917559533973518 3.087871673047138 0 0 0
387 1 -9.71500513980553 -6.902838414766121 1.9775898915877637 0 0 0
406 1 -9.47868483294755 -4.7369561393499495 0.7918094748478861 0 0 0
384 1 -11.12762035405569 -5.249369762275919 3.206125325187413 0 0 0
413 1 -8.853461341958736 -4.367472012653902 3.264741930301094 0 0 0
411 1 -7.33926755128742 -6.133941505072926 2.013352597219102 0 0 0
405 1 -7.267347755093877 -3.9604594778302946 0.816366616114717 0 0 0
414 1 -6.393653241591867 -3.736013682459168 3.1678196153090123 0 0 0
412 1 -5.070892328447188 -5.44486279870797 1.8889641895221239 0 0 0
334 1 -2.6428507060334105 -4.671081543977968 2.008941361208038 0 0 0
448 1 -1.2446593592583408 -6.501175042732266 0.9002770367506798 0 0 0
449 1 -0.3006297372934714 -4.004198777807257 2.1173585220304876 0 0 0
1326 1 -0.5497194316115195 -6.252133996797254 3.2707549671856473 0 0 0
968 1 -13.146561962266274 -1.5342718363013574 1.155114314973071 1 0 0
911 1 -12.286855200943045 -1.301284460109006 3.4356741280644894 0 0 0
407 1 -10.94827793064039 -2.959869415833369 2.1959569017042018 0 0 0
408 1 -10.753805610630156 -0.8553532911210535 1.0681694434382631 0 0 0
415 1 -8.643669647537951 -2.267450213997231 2.21580598655631 0 0 0
421 1 -6.306377735861422 -1.5056153399295162 2.221981411155417 0 0 0
330 1 -0.8925841685386313 -2.0434232447367666 12.60685301710174 0 0 0
419 1 -4.865867896329657 -3.2654094435889522 1.0221320987720173 0 0 0
422 1 -3.964888613409162 -0.861492292439781 2.258002116319899 0 0 0
336 1 -3.944573146707185 -2.9914598868202305 3.3629574028086626 0 0 0
776 1 -5.594651385599587 -1.3295949156732991 11.524315393210822 0 0 0
345 1 -2.5991054817611055 -2.4360166029575527 0.9020018327516652 0 0 0
335 1 -1.597897143109961 -2.3439418996183647 3.2729403824872083 0 0 0
92 1 -7.189101228859663 -1.8641654207056675 13.846876403715699 0 0 -1
350 1 -12.57259808940573 -11.998313937266607 4.043707096731778 0 0 0
1360 1 -11.702854213489147 -11.937906712713847 6.4074503903298545 1 0 0
443 1 -0.15866278471155582 -10.2112569976107 7.7548642267344 0 0 0
351 1 -10.29623866265516 -13.516341868172658 5.338484493258397 0 0 0
352 1 -10.088088822916937 -11.238843655734431 3.976694374366444 0 0 0
374 1 -9.315996939042023 -11.157527808237084 6.3458423743524595 0 0 0
459 1 -7.979373152745146 -12.856148467503102 5.101264628777708 0 0 0
455 1 -7.752244499046771 -10.59695378319427 4.114745180496383 0 0 0
262 1 -7.024366866006935 -10.259634251334964 6.459707212946858 0 0 0
427 1 -5.558797043453955 -11.955569529429614 5.358454476510422 0 0 0
438 1 -3.22679317645337 -11.368692077807871 5.347657173007457 0 0 0
426 1 -3.3712356247778423 -13.430293957403403 6.443061547325774 0 0 0
1232 1 -14.08015931378031 -4.004844174979489 13.614640615725898 1 0 0
439 1 -1.8705759326427192 -13.046709634641212 4.0827446407230585 0 0 0
441 1 -0.8772383620814104 -10.689045790872745 5.3379183290374055 0 0 0
429 1 -1.1496765487084062 -12.809354467089547 6.447736578506342 0 0 0
1247 1 -13.846118338164356 -10.282791185562134 5.257306187775859 1 0 0
1375 1 -13.770975673402631 -7.986432293491367 4.313244007459302 1 0 0
375 1 -11.548204924970442 -9.60253607740352 5.2549371929143 0 0 0
371 1 -12.79870372995693 -7.743952056904831 6.575023551346684 0 0 0
357 1 -11.387942287033926 -7.420571487196611 4.229990951122376 0 0 0
369 1 -9.1819781535191 -8.976036506467661 5.32834403702102 0 0 0
358 1 -10.517360480830924 -7.122922087395402 6.523938435406285 0 0 0
285 1 -6.864999859707509 -8.13910154981031 5.317191394120092 0 0 0
437 1 -5.3758649985358 -9.918251308017462 4.129272270898172 0 0 0
442 1 -3.094024646042497 -9.013915969280369 4.330468829441349 0 0 0
286 1 -4.533332095311421 -7.391689751010876 5.345755686134405 0 0 0
428 1 -4.64746181524656 -9.391026158250721 6.567887192825934 0 0 0
447 1 -0.6099608292556304 -8.576760829353216 4.252097187662956 0 0 0
326 1 -2.3038147935610205 -8.883246000369457 6.624829057293921 0 0 0
372 1 -12.763192951987154 -5.5730198896067495 5.519777980729616 0 0 0
1264 1 -12.720648352848801 -3.597840539263279 4.4167946793941315 1 0 0
301 1 -3.3366621767279447 -2.9119071915103323 12.631368609133068 0 0 0
396 1 -8.911508474637973 -6.705151947931536 4.4239645449367675 0 0 0
376 1 -10.433955911512983 -4.791177910313209 5.51768407536442 0 0 0
395 1 -6.546328988498277 -5.823103914200459 4.3174008906231816 0 0 0
287 1 -7.9547284686829896 -4.236824008748316 5.4614598663739695 0 0 0
263 1 -8.170845184760886 -6.449176778231987 6.677079398962897 0 0 0
296 1 -5.851279651310158 -5.629706637648992 6.6769940134605665 0 0 0
314 1 -5.570676668767616 -3.472529804291927 5.637394369229122 0 0 0
313 1 -4.178609965148921 -5.188526194726455 4.2409281559430685 0 0 0
340 1 -3.4103900585985087 -4.987671161414159 6.7026430354398325 0 0 0
339 1 -1.883707606834994 -4.469322259708369 4.245862692625353 0 0 0
319 1 -2.069006693236174 -6.652760094212851 5.392705307579986 0 0 0
321 1 -1.0633471159157217 -4.28044612520581 6.6631622534340895 0 0 0
391 1 -11.494811429461134 -1.0531517855981019 5.624623913222512 0 0 0
399 1 -11.739314429646972 -3.1699575392952646 6.759417967478223 0 0 0
392 1 -13.844477193655095 -1.8013523348079143 5.665060958022606 0 0 0
389 1 -10.063651615668535 -0.5147347862148024 3.4679792155066824 0 0 0
398 1 -10.081869546626244 -2.751307782675518 4.497404756060183 0 0 0
410 1 -9.161429139343388 -0.30404285894235805 5.622294634375072 0 0 0
289 1 -9.367063040874072 -2.392489687722964 6.758972771939645 0 0 0
397 1 -7.717813235929551 -2.0349698392057256 4.545627429305023 0 0 0
409 1 -6.965117699724221 -1.7822706723942545 6.806174078689073 0 0 0
338 1 -5.317481992300635 -1.3832333834328985 4.489594588664657 0 0 0
337 1 -2.991918401435232 -0.7199340653634287 4.449842344963491 0 0 0
341 1 -3.2793201676645367 -2.7918243110589014 5.6222231396491775 0 0 0
317 1 -4.696968588804122 -1.0524827904148424 6.8796085816748285 0 0 0
1193 1 -0.7776416117525837 -1.9814653563670834 5.558584018675928 0 0 0
342 1 -2.3121369315503237 -0.47139194276599916 6.822305653748115 0 0 0
1341 1 -13.223828193086499 -12.188335857531053 8.672238557711774 1 0 0
244 1 -9.500696209187943 -13.3960342676769 7.607697291890878 0 0 0
1319 1 -10.913803183251309 -11.575046494331076 8.76194991731027 1 0 0
253 1 -8.786837373041788 -12.973901084027467 9.862620540345405 0 0 0
362 1 -11.045375618064165 -13.769532502392504 9.948870710897767 0 0 0
245 1 -8.533545074547753 -10.893322004788917 8.79208416295573 0 0 0
424 1 -7.134126745904547 -12.470596456423008 7.502236442208938 0 0 0
425 1 -6.440571911693252 -12.259211674506755 9.928601419819069 0 0 0
430 1 -4.8529778775948 -11.78127938247436 7.6597412150728434 0 0 0
278 1 -4.111000578588387 -11.582459475037389 10.044400577086149 0 0 0
1261 1 -14.172431116033774 -3.9582665888684687 6.679936921512178 1 0 0
431 1 -2.5142308132862574 -11.115505416667249 7.627912941117989 0 0 0
432 1 -2.6565231132347087 -13.20397931769092 8.787090526291406 0 0 0
433 1 -1.7993497557651015 -10.78906441801903 10.044362635341335 0 0 0
1268 1 -0.3072580504179765 -12.47357702700692 8.904793445621602 0 0 0
1356 1 -12.975774709459635 -9.98862934507204 7.451868637746005 1 0 0
246 1 -12.252882161548861 -9.765810151750095 9.928692058534002 0 0 0
363 1 -12.143500488255235 -7.536034313872219 8.879331630287636 0 0 0
361 1 -10.769146253156414 -9.369292747970054 7.571936925180234 0 0 0
364 1 -9.911724323837548 -9.06040195736859 10.094764274273581 0 0 0
266 1 -9.752778911536218 -6.994304361359937 8.849554558066108 0 0 0
264 1 -8.372890182812418 -8.561925485104753 7.627801475952706 0 0 0
294 1 -6.083447552514633 -7.787280752451944 7.658843959614439 0 0 0
271 1 -6.210567050121834 -10.037081470195867 8.773379854743231 0 0 0
265 1 -7.591812843326886 -8.394922984668172 10.062499369812263 0 0 0
295 1 -3.7255372852230604 -7.111458501690752 7.674859182079937 0 0 0
272 1 -3.889847658681468 -9.265150852780035 8.756509426935045 0 0 0
274 1 -5.226012379270976 -7.673811439414083 10.11158665019929 0 0 0
303 1 -1.5618555398539797 -8.633878149152004 9.00012040842791 0 0 0
704 1 -4.195542160892234 -13.78941915575681 10.967578269477913 0 1 0
404 1 -11.977857849420408 -5.350934155448922 7.9238155349408625 0 0 0
1212 1 -13.755404902189232 -5.9070341104937665 10.101209733432006 1 0 0
379 1 -13.432703487947292 -3.729332436176737 8.998024801125426 0 0 0
268 1 -11.155934896962549 -5.295695205332015 10.132080215747232 0 0 0
378 1 -9.602802248446427 -4.709048188139013 7.810250012972306 0 0 0
290 1 -8.86858002229626 -4.472470174632738 10.166585335463255 0 0 0
316 1 -7.214798345133145 -3.910649940704589 7.875695315292221 0 0 0
288 1 -7.430109946419866 -6.086576617728302 9.002848349963648 0 0 0
292 1 -6.564333531361759 -3.8116181232540907 10.31474366096628 0 0 0
297 1 -5.067991863281499 -5.387757327673006 8.982808439355965 0 0 0
305 1 -2.9490673745183607 -6.9564151278266175 10.088618729833625 0 0 0
322 1 -2.7799519614332855 -4.714866718019676 9.042399170719355 0 0 0
320 1 -1.2685602807432925 -6.379398065390184 7.861995452156849 0 0 0
1196 1 -0.3967173616371227 -3.848319273165119 9.013279224080675 0 0 0
327 1 -0.5511891290768531 -6.123847480245695 10.154521519353215 0 0 0
393 1 -13.125984844189308 -1.586227250005157 7.924803204579403 0 0 0
900 1 -12.431402948379926 -1.3327379967238926 10.24759559663749 0 0 0
899 1 -10.720959970419779 -0.8367406847418497 8.070102585818509 0 0 0
401 1 -11.016362572544566 -3.0547831426004866 9.018521260794182 0 0 0
777 1 -10.104434228753473 -0.4569842246753062 10.31733759804378 0 0 0
417 1 -8.631664779003502 -2.2884265604271565 9.128602326517145 0 0 0
416 1 -6.15622913336003 -1.7736003057777445 9.19557619529891 0 0 0
781 1 -3.261306571942729 -0.5585640926474404 11.619198659965631 0 0 0
323 1 -4.790069396517238 -3.297530521229131 7.84402540666124 0 0 0
792 1 -3.866000401134057 -0.8048369851796444 9.108792438632241 0 0 0
325 1 -4.069301930129933 -3.0147104914795495 10.299721189901492 0 0 0
1217 1 -0.1032552262065689 -1.8270709803542626 7.901154438670451 0 0 0
324 1 -1.7691717622830687 -2.3090273975421916 10.459849674844486 0 0 0
343 1 -2.452432321636758 -2.49679123604278 8.011121928073878 0 0 0
584 1 -2.3458431363169225 -0.45236838871704244 13.876335154732308 0 0 -1
349 1 -14.011403509836672 -12.334552451015853 13.341214586494166 0 0 0
1321 1 -12.447768247457917 -12.076576804246043 11.12133504098365 1 0 0
240 1 -11.674447368248432 -11.826913050352331 13.364929465972912 0 0 0
247 1 -10.0133752263494 -11.43060556044454 11.144106395611368 0 0 0
254 1 -10.18849164265831 -13.473835702854586 12.343959724248156 0 0 0
256 1 -9.326067088912595 -11.12868713074097 13.449058923045756 0 0 0
273 1 -7.779730858015784 -10.548968342009882 11.18308225091158 0 0 0
255 1 -7.931892791122704 -12.707706277436941 12.361908881519424 0 0 0
329 1 -1.5516979043647048 -0.2390465068518548 9.257802051572769 0 0 0
258 1 -5.561747952189046 -12.123603288410612 12.345094799238927 0 0 0
28 1 -3.3922457653244678 -13.531864486920322 13.367766844940514 0 0 -1
284 1 -3.2188800782201437 -11.365056227656185 12.408619378261092 0 0 0
283 1 -1.859954292144403 -13.044373444311866 10.936231874051431 0 0 0