LAMMPS data file via write_data, version 29 Sep 2021, timestep = 0

1869 atoms
3 atom types

-14.097151671740722 14.097151671740722 xlo xhi
-13.964059113741722 13.964059113741722 ylo yhi
-13.944911885094664 13.944911885094664 zlo zhi

Masses

1 55.847
2 1.008
3 1.008

Atoms # atomic

50 1 -13.567806280588806 -12.722021963850487 -11.985110059409818 0 0 0
48 1 -12.071911229363835 -11.37393036839314 -13.32395870477552 0 0 0
49 1 -12.645500053139655 -10.90499964165043 -10.46699635524317 0 0 0
58 1 -10.923159347376295 -12.387344006244435 -11.450090575226318 0 0 0
26 1 -9.324584664046155 -10.870986871180643 -12.88615226782751 0 0 0
690 1 -13.693356810542092 -0.0868330671200539 -5.15197533841363 0 0 0
66 1 -8.344222692453933 -12.165639897930953 -10.671853491689648 0 0 0
366 1 -7.920998400321983 -12.817477898528287 -13.317934204255758 0 0 1
76 1 -6.526545578745576 -13.679459792856981 -11.593415535211774 0 0 0
29 1 -6.906813010945749 -10.981763248780448 -12.050243686147931 0 0 0
30 1 -5.076522297761702 -12.444565817259907 -12.812417940394221 0 0 0
34 1 -3.775264154832932 -13.471117217808422 -10.9384053579542 0 0 0
33 1 -4.170958942762608 -10.6975466840103 -11.228018279834831 0 0 0
207 1 -6.138203020703677 -2.5977301814021594 -2.182222125428913 0 0 0
42 1 -2.3422223845423105 -12.210475804900607 -12.206084493046538 0 0 0
44 1 -0.7171770636860515 -13.72252583491163 -13.005264577604493 0 0 0
1291 1 -0.951295188654683 -10.85937880963052 -13.481804811961455 0 0 1
88 1 -1.5788172473785966 -10.479837973637649 -10.64773581295852 0 0 0
959 1 -13.949436814269035 -9.975520332346218 -12.399557376661392 1 0 0
47 1 -12.849429862548538 -8.12893908593693 -11.06279563468987 0 0 0
224 1 -4.809582535342933 -13.91092812848903 -0.2723393139275352 0 0 0
56 1 -11.183335130247945 -9.599420737994876 -11.984403616421478 0 0 0
64 1 -8.721562741792525 -9.552771859299924 -11.022809361491943 0 0 0
54 1 -9.537827856284522 -8.055474314644094 -13.415003058587885 0 0 0
55 1 -10.182249461936237 -7.7540235376792985 -10.635141063266527 0 0 0
28 1 -7.442059478581369 -8.385613649881641 -12.330942792315158 0 0 0
72 1 -6.047512537775276 -9.267902232463012 -10.578128374187683 0 0 0
367 1 -5.4805857537799305 -9.574999930273439 -13.298353737782097 0 0 1
32 1 -4.501211939387678 -7.999771299223323 -11.714297727179945 0 0 0
325 1 -2.844401671179865 -9.323252250304549 -12.604528204250784 0 0 1
36 1 -1.992599507470672 -7.532081229611554 -11.353483103750671 0 0 0
37 1 -0.28372753144513574 -8.918140919639995 -12.248243258944296 0 0 0
953 1 -13.195845556089635 -5.383315664722993 -11.507419268877598 1 0 0
45 1 -11.728691507999157 -3.8999720658367654 -13.118143706827267 0 0 0
46 1 -11.325342687498184 -6.70605800691706 -12.574855417825363 0 0 0
53 1 -10.337123578536906 -4.812619227212943 -11.231435836345396 0 0 0
62 1 -8.503458921642846 -6.129709626864085 -12.137924840310063 0 0 0
321 1 -5.997758891373172 -7.046524722430999 -13.650777631850342 0 0 1
70 1 -6.45265889377977 -6.504027821681523 -11.075631342715472 0 0 0
61 1 -7.386839467386906 -4.0593746901346215 -10.960040677253176 0 0 0
60 1 -7.0256490563575325 -4.4410701660322935 -13.687347928174077 0 0 0
322 1 -3.320566796388805 -6.523624064019923 -13.160794329783819 0 0 1
31 1 -5.179800324411772 -5.247711331128471 -12.385168711936366 0 0 0
316 1 -3.8475384675026145 -3.7343702158435317 -13.382233810517157 0 0 1
79 1 -3.743255787672652 -6.0896428985101965 -10.418525069930597 0 0 0
1233 1 -0.5192268569341092 -6.043939495775764 -12.73667451335563 0 0 1
323 1 -2.339478159802594 -4.761756115705751 -11.741164396169518 0 0 1
132 1 -12.29818708243036 -1.1831584999607436 -13.604504126222563 0 0 0
952 1 -13.723597303099105 -2.486256504607077 -12.09809227523527 1 0 0
85 1 -12.743468672160208 -0.7885063538839692 -10.718051381743859 0 0 0
16 1 -8.048216466496353 -1.3419461892030498 -1.2231838780113868 0 0 0
52 1 -8.835115131322755 -3.2346757667082855 -12.774545228154254 0 0 0
98 1 -10.813970681647294 -2.2731747141783227 -11.646223528047738 0 0 0
129 1 -9.67899638808283 -0.9011955243846437 -12.953051888863225 0 0 0
68 1 -5.836774189391381 -2.6175855878457455 -12.448231971200268 0 0 0
130 1 -7.810885401783049 -1.4130852182528475 -11.553062325056201 0 0 0
77 1 -4.381020716417233 -3.4131688562242886 -10.798255265214909 0 0 0
127 1 -4.815213379519902 -0.7888983048413358 -11.1020996382531 0 0 0
175 1 -2.9042408274153164 -1.9366539227414492 -12.20920595433988 0 0 0
361 1 -12.472886554208603 -8.610259296700637 -13.889916641422246 0 0 1
35 1 -0.963060120953795 -3.2022730730270297 -13.04074422845286 0 0 0
126 1 -2.166947781525467 -0.23229880686714743 -10.755016141994194 0 0 0
709 1 -1.3958722833964305 -0.5313369581742382 -13.561713237669005 0 0 1
14 1 -9.714335054263179 -10.322306821064892 -0.028840458492721766 0 0 0
51 1 -12.415608379801814 -13.842207353177194 -10.132781918899266 0 0 0
104 1 -11.632340314784152 -12.295601019939793 -8.528679497555187 0 0 0
95 1 -13.107740073661065 -10.665816390990885 -7.621693876698435 0 0 0
97 1 -12.876873024073161 -13.572292959691655 -7.095385049593934 0 0 0
226 1 -1.8360117083325154 -0.7387243942275372 -3.237419787923187 0 0 0
112 1 -8.876565293791307 -11.692735073255657 -8.017844348078546 0 0 0
59 1 -9.748289950285088 -13.548613509969083 -9.442017482692622 0 0 0
57 1 -10.255300729171708 -10.737772561713744 -9.889627916541784 0 0 0
67 1 -7.111270420994932 -13.293008443535978 -8.884379729228966 0 0 0
120 1 -6.125757583017562 -11.474205665814802 -7.4748985010510625 0 0 0
74 1 -5.6390230247889 -11.945940439421877 -9.89690717240307 0 0 0
122 1 -4.952836897094807 -13.460146997450828 -7.60973964816058 0 0 0
75 1 -3.376068283506523 -12.031828526538092 -8.831690712678206 0 0 0
90 1 -1.3953043959295606 -13.369155155658706 -10.12114354302318 0 0 0
89 1 -0.6161689200977936 -11.483618584488148 -8.762808023910488 0 0 0
137 1 -2.0576489489819565 -13.140069058124743 -7.227544463885222 0 0 0
102 1 -11.71529667620653 -9.075953149997556 -9.135438476495604 0 0 0
94 1 -13.367903923073813 -7.6112110550660255 -8.237097193620613 0 0 0
103 1 -10.61976400276943 -10.364328946328975 -7.114561964820041 0 0 0
110 1 -9.225076054631476 -9.014159385621198 -8.43996221385946 0 0 0
101 1 -10.57032635697545 -7.078941850796019 -7.838167414902545 0 0 0
65 1 -7.417362703002375 -10.526196130764777 -9.200357756172824 0 0 0
118 1 -6.465815469432842 -8.676910229067559 -7.883545636269933 0 0 0
63 1 -7.777228449551968 -7.69774152301753 -9.752838625805687 0 0 0
109 1 -8.409742747837452 -7.117450617048799 -7.063886378723753 0 0 0
86 1 -3.212247711578021 -8.84119624315072 -9.782651020611073 0 0 0
73 1 -4.732383792832149 -10.200256208836764 -8.611151526304205 0 0 0
133 1 -3.983035403963468 -8.27469205994172 -7.475632631604243 0 0 0
71 1 -5.262923670668746 -7.3893940694419005 -9.289847519514863 0 0 0
135 1 -2.310978341237341 -10.105079839649688 -7.841579080318039 0 0 0
87 1 -0.6587882577863358 -8.561973822507984 -9.27984021419185 0 0 0
100 1 -11.9000198520458 -6.278940893632971 -9.714429820781103 0 0 0
1001 1 -13.760638820153792 -4.897990905703297 -8.66840998315443 1 0 0
93 1 -12.261549270174266 -3.5140093262266614 -10.260626650516343 0 0 0
108 1 -9.121017799846062 -5.701237601018512 -9.348311572967162 0 0 0
99 1 -10.905968382505424 -4.39981165808611 -8.435098247760383 0 0 0
116 1 -6.915993595869391 -5.895499634034882 -8.350699444613468 0 0 0
107 1 -7.886805363455178 -3.839359609426916 -8.149296762915547 0 0 0
69 1 -5.585820217922301 -4.804629553188036 -9.576742915064912 0 0 0
117 1 -4.413471466463868 -5.895277777096808 -7.551844029016946 0 0 0
125 1 -3.060642087845123 -4.447688552582594 -8.943971909936147 0 0 0
80 1 -2.509730760877229 -7.02445947183206 -8.576066815287227 0 0 0
92 1 -1.0762108744038326 -5.751620123698052 -9.829664881841792 0 0 0
139 1 -0.40789024810734986 -3.94705220234834 -8.364487818402381 0 0 0
188 1 -12.732484791776008 -3.1174130140158898 -7.433047718128662 0 0 0
41 1 -13.177357410657732 -0.4254081745975764 -7.927349693151053 0 0 0
144 1 -11.254948583253285 -1.8304552128762595 -8.870791758550418 0 0 0
106 1 -9.25364983397813 -3.033163837563917 -9.8942914274628 0 0 0
84 1 -9.96693510940884 -0.3984170046774018 -10.250584651002246 0 0 0
152 1 -9.87922719394372 -2.550476170510743 -7.06809784184426 0 0 0
83 1 -8.436208214873318 -1.0601706629031735 -8.575993547326885 0 0 0
114 1 -6.374309263046714 -2.2022002035060524 -9.598766179405803 0 0 0
115 1 -5.128425463889975 -3.2630581954455575 -7.849691357333967 0 0 0
82 1 -5.348337159623684 -0.4343416503047237 -8.353090290097482 0 0 0
123 1 -3.458680692425922 -1.8272999328079553 -9.206936152382893 0 0 0
78 1 -1.59030741395574 -2.963079398082284 -10.389532514881743 0 0 0
124 1 -2.341771562762103 -2.6891811503510556 -7.301298457942185 0 0 0
138 1 -0.7094284138890146 -1.2293810704439938 -8.93248122116248 0 0 0
143 1 -13.230184638155881 -13.092159153614176 -4.399551040568415 0 0 0
150 1 -11.924056245527419 -11.65158506916793 -5.6300017494822665 0 0 0
105 1 -10.272965455486236 -12.961495582610826 -6.655955759547769 0 0 0
151 1 -10.501858767824341 -12.601689680432033 -3.9563630606622766 0 0 0
158 1 -9.131886805950428 -11.076977215656699 -5.158929771427863 0 0 0
113 1 -7.532635200880176 -12.714783427708221 -6.353724297357417 0 0 0
167 1 -6.293531113424452 -11.07179173318555 -4.902282437150204 0 0 0
159 1 -7.765861034995538 -12.16118438156949 -3.5805587463173385 0 0 0
169 1 -5.6300106255671984 -13.296500344688132 -4.835750111065252 0 0 0
121 1 -3.961625893620093 -11.67208875744052 -6.381007800401321 0 0 0
168 1 -4.481294737761756 -11.287521351557828 -3.5106552208891966 0 0 0
179 1 -2.7198231436841684 -12.553037338142918 -4.571384895665609 0 0 0
136 1 -1.022221814775678 -11.090375671628562 -6.123437407374562 0 0 0
20 1 -5.296950025132237 -0.8126727216525165 -0.8670298791859317 0 0 0
141 1 -13.903355357704182 -7.249100420322074 -5.5948065601365915 0 0 0
148 1 -12.171416494088163 -8.597728198103624 -6.347980672913358 0 0 0
142 1 -13.50810101986231 -10.046292750229583 -5.00847797030986 0 0 0
149 1 -11.042469847437594 -9.706383168644297 -4.443870510183785 0 0 0
156 1 -9.641213022624434 -8.516993252281658 -5.827025864931214 0 0 0
111 1 -7.815707165943784 -9.909617879699276 -6.638436833323215 0 0 0
157 1 -7.636388106384518 -9.2049243178913 -4.247477866869421 0 0 0
165 1 -6.252645595830266 -7.419541342046122 -5.855648211823921 0 0 0
119 1 -5.208279110265575 -9.531703082376186 -6.005261675377311 0 0 0
166 1 -4.952286455841218 -8.54468418666367 -3.807055895576651 0 0 0
177 1 -2.952283143721493 -9.731763181364318 -5.271960954590794 0 0 0
174 1 -3.480062777179594 -7.0439796398660715 -5.3080589889470815 0 0 0
185 1 -0.13337475506058993 -9.315890820847187 -4.537217311333402 0 0 0
134 1 -1.4367969099736513 -8.251957092872388 -6.547392744942336 0 0 0
176 1 -2.025889995954426 -7.943893329709113 -3.5894394861760066 0 0 0
146 1 -12.376843898380255 -5.774296743380335 -6.919467658277845 0 0 0
190 1 -12.892587506792811 -5.405283221399049 -4.225024279124421 0 0 0
145 1 -11.377867974740173 -3.9743026015588097 -5.558655397926868 0 0 0
147 1 -11.057987746588111 -6.811623466221385 -4.941915241517352 0 0 0
154 1 -9.386840319898056 -5.135448698415489 -6.562636409633729 0 0 0
199 1 -9.89713759894261 -4.882608456841961 -3.8523480321352697 0 0 0
155 1 -8.268425052777552 -6.358875366759905 -4.748408125972766 0 0 0
163 1 -6.608832466324466 -4.771714307259565 -6.261218797369092 0 0 0
153 1 -8.415979689701839 -3.3287814075499593 -5.279950435179206 0 0 0
208 1 -7.102404828548975 -4.459573186052635 -3.536576524060054 0 0 0
164 1 -5.30467798314905 -5.7231004373906575 -4.4368050015978735 0 0 0
172 1 -3.792087563318404 -4.207156966584284 -5.890641491417689 0 0 0
184 1 -0.5946855233345598 -6.4766427911099225 -5.122900597342454 0 0 0
131 1 -1.9419025739138593 -5.3867946831928535 -6.8105758205841544 0 0 0
183 1 -0.9812812572778356 -3.6271722565845703 -5.478259691454605 0 0 0
173 1 -2.3749915205612684 -5.297410807527459 -4.063929132020899 0 0 0
3 1 -13.254852121944742 -2.7504022461190445 -4.494673892786603 0 0 0
40 1 -11.855672485472393 -1.2575047700683406 -6.0342260423186 0 0 0
7 1 -14.045534674983806 -9.823913920231828 -2.237323374205358 0 0 0
39 1 -8.780635011057207 -0.8295696470483502 -5.807773891795291 0 0 0
197 1 -10.341518979362373 -2.228539168951226 -4.340202170882391 0 0 0
161 1 -6.9263993501809455 -1.9766044718654658 -6.897712983144464 0 0 0
38 1 -6.034005501153965 -0.17075853481833825 -5.408295208518293 0 0 0
206 1 -7.473124083445743 -1.586393604370139 -3.8410574004787 0 0 0
162 1 -5.614432605902868 -2.740606081791219 -5.0002363937989465 0 0 0
170 1 -4.235626397734043 -1.3920264491752903 -6.519960559199207 0 0 0
216 1 -4.663364198661451 -1.0149733133979204 -3.5847394476438694 0 0 0
171 1 -2.97922649236396 -2.3190313397369753 -4.712845142937985 0 0 0
181 1 -1.313576213170446 -0.9269876985621845 -6.082381475584119 0 0 0
23 1 -2.2919130282437123 -0.15410505263473695 -0.6218442835398985 0 0 0
187 1 -13.66237604688007 -12.703452361059625 -1.5914325091110246 0 0 0
194 1 -12.22130589130019 -11.196406987506544 -3.0150814937283794 0 0 0
8 1 -12.659931222312448 -10.684261903970143 -0.37451664882757285 0 0 0
195 1 -10.903113079716253 -12.085158692962178 -1.2325771744305243 0 0 0
205 1 -9.103700914969075 -13.575200029608757 -2.144211609187469 0 0 0
203 1 -9.446125295784359 -10.58061654512694 -2.661780454478558 0 0 0
204 1 -7.945464024869567 -11.55701395780655 -0.928180238462426 0 0 0
214 1 -6.127779798044929 -12.866372965093465 -2.089960765074636 0 0 0
215 1 -3.217121493774341 -12.241450465335346 -1.7114183194730046 0 0 0
213 1 -5.170257023627201 -11.106362401601432 -0.688673133204933 0 0 0
227 1 -0.4973455184527751 -1.601747396291561 -1.386145536415766 0 0 0
180 1 -1.303179412930655 -13.503947479919397 -2.691308614003219 0 0 0
233 1 -0.4561277722127759 -11.773393102363341 -1.33536187910698 0 0 0
178 1 -1.67584096157732 -10.793364692939326 -3.2159784621790894 0 0 0
223 1 -2.2175766253708034 -10.460207085916458 -0.25284009367428695 0 0 0
228 1 -1.5096745131798137 -3.346941732605732 -2.7658579409073436 0 0 0
192 1 -12.597564743783456 -8.176062420774723 -3.64087851883982 0 0 0
6 1 -13.069593244000886 -8.034223408286746 -0.8956858876697336 0 0 0
217 1 -3.349256552629601 -2.2525449415046648 -1.736034640062794 0 0 0
193 1 -11.112296785656877 -9.217024392520589 -1.86899990747858 0 0 0
201 1 -9.596518008016584 -7.763071193359326 -3.1998228184772444 0 0 0
13 1 -10.171688004008532 -7.411959955892204 -0.3842856453891397 0 0 0
212 1 -6.403409783021453 -10.111590147228796 -2.4551112102015527 0 0 0
202 1 -8.228251549144876 -8.751324278969687 -1.4463098764870939 0 0 0
210 1 -6.721895050357467 -7.1778640544388566 -3.101327933840036 0 0 0
222 1 -3.5013778129992765 -9.444273814387671 -2.202592234979482 0 0 0
211 1 -5.338976174170728 -8.268631806860373 -1.2277873631480407 0 0 0
232 1 -0.8219132585764992 -8.956032803880555 -1.764823165113306 0 0 0
221 1 -2.555773988159981 -7.623011959902156 -0.8019624559650271 0 0 0
191 1 -11.453438040372252 -6.593024208192901 -2.213182196038831 0 0 0
4 1 -13.37951354776724 -5.224309604893405 -1.2628974307727319 0 0 0
189 1 -11.831440587947004 -3.7705263490162526 -2.611215042431626 0 0 0
200 1 -8.58105340297869 -5.826063203020519 -1.9993389381630333 0 0 0
12 1 -10.452474524838085 -4.735562162357999 -0.9454052738572845 0 0 0
18 1 -7.308882199781055 -6.970855168162536 -0.07245869453206844 0 0 0
17 1 -7.616023589419984 -4.02089295142016 -0.5628176835511134 0 0 0
209 1 -5.803588901140316 -5.405470899190949 -1.6783292292787007 0 0 0
220 1 -3.91098766588045 -6.746642802674213 -2.6697639785282394 0 0 0
218 1 -4.267046055131363 -3.837358474910104 -3.191147256504861 0 0 0
219 1 -3.0795409708933192 -4.887111100877922 -1.2983221763420385 0 0 0
21 1 -4.89358785470448 -3.568494386303369 -0.28730505762367287 0 0 0
229 1 -0.10181199923437667 -4.418559719759182 -0.9638374497114786 0 0 0
230 1 -1.1197473994345373 -6.1620334560158865 -2.239794150497243 0 0 0
246 1 -12.71063732835285 -0.5651049674844977 -0.5327958756057498 0 0 0
2 1 -12.244781451967434 -0.8929885527467363 -3.2458062996666133 0 0 0
1145 1 -13.639985427332235 -2.466658012928418 -1.7818781508394164 1 0 0
198 1 -8.965488701215019 -3.096256019828827 -2.4880301058410073 0 0 0
1 1 -9.3148960517842 -0.2243588106948664 -3.0237859906851003 0 0 0
10 1 -10.724960968609784 -1.8839158519436179 -1.4990445283991587 0 0 0
91 1 -0.1236312393753689 -1.537712765555293 -11.630463827096651 0 0 0
27 1 -9.395874438441027 -13.876172771052612 -12.128025805983762 0 0 0
247 1 -12.323494055439776 -3.3133398627217954 -0.05092510507558323 0 0 0
96 1 -14.02643628518689 -12.336454634137896 -9.035163432335125 0 0 0
488 1 -9.840838070682903 -0.09873622903149837 -0.07317315191532003 0 0 0
24 1 -2.0482768136563703 -3.0871778304757047 -0.011265679899954861 0 0 0
369 1 -3.6578663247048784 -11.090863596365084 -13.928294725349362 0 0 1
295 1 -12.58880603512054 -13.192080760852239 2.9641630294246344 0 0 0
9 1 -12.192206233719626 -13.633058859399299 0.20466964308869073 0 0 0
290 1 -11.263879109295512 -11.592794999335394 1.4762637042854045 0 0 0
524 1 -9.385433831323777 -13.090570460778359 0.4815289888136238 0 1 0
276 1 -10.045158560127646 -12.724570997081836 3.278366133722793 0 0 0
15 1 -8.53919737992156 -11.279780108053519 1.842789672014428 0 0 0
299 1 -6.636499120322373 -12.516967379393154 0.888901752417695 0 0 0
271 1 -5.586012349135206 -10.79251211019401 2.257687628767135 0 0 0
301 1 -3.7280736319871206 -11.908009650828792 0.9764319667343724 0 0 0
298 1 -5.205971597746071 -13.39764838980271 2.544817595089347 0 0 0
273 1 -0.8122467825806599 -11.469276337352857 1.5333864848305616 0 0 0
282 1 -2.3105652782248196 -12.937790387911546 2.9061539505522216 0 0 0
265 1 -13.061041600506547 -10.448824742170482 2.6287060925948946 0 0 0
289 1 -11.590309169271634 -9.006652407459063 0.9647058170167053 0 0 0
256 1 -13.278782395687736 -7.626560353571009 1.9470644425854573 0 0 0
267 1 -10.278776797770787 -9.901367796820082 2.9967824907460763 0 0 0
291 1 -8.770292876212519 -8.466343121470185 1.2528406975336388 0 0 0
258 1 -10.564842431719736 -7.139183821328306 2.358131286052208 0 0 0
308 1 -0.9605542384813397 -0.9608475656247002 11.448876331213873 0 0 0
269 1 -7.465416858585463 -9.347080804158102 3.2111342461974974 0 0 0
19 1 -6.930186950196321 -9.770905172829128 0.3692060981118921 0 0 0
292 1 -6.120903678940895 -7.955005741422572 1.6418286547182834 0 0 0
293 1 -3.9058712037471146 -9.183998997568775 0.48883225011141995 0 0 0
262 1 -3.047069549571459 -7.413503310293726 2.002897786316492 0 0 0
272 1 -2.7012983196324374 -10.156685184523251 2.4171665577083825 0 0 0
264 1 -1.2017422855408029 -8.472775694457308 0.9813027322524324 0 0 0
287 1 -11.926455047302657 -6.192953356136807 0.35669177854980205 0 0 0
434 1 -12.316945744456858 -5.75534214634872 3.3341522053910655 0 0 0
1370 1 -13.677029082696128 -4.802392304596129 1.3545084742208093 1 0 0
249 1 -9.139283686529593 -5.624042365582241 0.9476350706823418 0 0 0
257 1 -11.00420990213115 -4.373651520942309 1.6702561661237585 0 0 0
260 1 -7.818977434708892 -6.639875580299 2.736810728187768 0 0 0
251 1 -6.344298335561329 -5.062542803043398 1.2336249258305987 0 0 0
259 1 -8.090008702534657 -3.769191030213582 2.290415453452807 0 0 0
261 1 -4.977499479408712 -6.171293028750285 3.0603620794497477 0 0 0
253 1 -3.4706460677817343 -4.741945598855354 1.5617920201687774 0 0 0
320 1 -9.778310782566571 -5.153283072399095 13.934595104106252 0 0 0
255 1 -1.6169070346432584 -5.90110682125556 0.4632143477052253 0 0 0
236 1 -0.18918564263671556 -6.711105482508677 2.2341243849077745 0 0 0
433 1 -0.5949178724767439 -3.9495021078442445 1.8059637298739304 0 0 0
442 1 -2.1245031825366922 -5.4613632957850875 3.3209507819606596 0 0 0
296 1 -8.13521038064019 -13.865999768718131 2.367777517355014 0 0 0
425 1 -12.818112611989667 -3.004026578587938 2.8724807676568265 0 0 0
337 1 -3.8003603128254877 -1.7222092641374278 11.087668848134191 0 0 0
248 1 -11.438638471068538 -1.5576475711183875 1.226968994664512 0 0 0
11 1 -9.496739979457757 -2.921436149156886 0.38113304909879986 0 0 0
427 1 -9.882674526829216 -2.522229151499033 3.0410023561072155 0 0 0
250 1 -8.541250985189894 -0.9326802521072235 1.6593912959152881 0 0 0
252 1 -6.688567976858008 -2.211532315919765 0.6860375141171335 0 0 0
429 1 -7.140222291293591 -1.9175750100273703 3.4038273470233396 0 0 0
423 1 -5.691565425040935 -0.41960732933081424 1.9541274948060128 0 0 0
431 1 -5.195016592406315 -3.3466294270892494 2.3758134320230884 0 0 0
254 1 -3.8294647552554206 -1.6937090637309176 0.9538408264641518 0 0 0
432 1 -2.487922808582397 -2.5480908194744973 2.729300771428152 0 0 0
424 1 -0.9094597397816031 -1.2865645768316405 1.3876214974855543 0 0 0
274 1 -13.276402588864748 -12.92151119684526 5.855164053191553 0 0 0
275 1 -11.768615505725478 -11.396523103946484 4.349455242756916 0 0 0
454 1 -10.32080251592153 -12.201427682713234 6.050554786675798 0 0 0
277 1 -8.883216708701482 -10.851414740188996 4.574883666100677 0 0 0
284 1 -8.639000552084246 -13.760322446179988 5.149482163328484 0 0 0
297 1 -7.141202109167208 -12.1500045457975 3.6912435365216165 0 0 0
456 1 -7.565234201822767 -11.937228819504988 6.545446571118747 0 0 0
278 1 -5.745045693293113 -13.033520336457801 5.441511259962349 0 0 0
280 1 -4.1128477742996346 -11.594483336171452 3.8581166768000283 0 0 0
458 1 -4.586436830977686 -11.07254700189524 6.7011130160227435 0 0 0
286 1 -2.781247076280831 -12.45619846124199 5.763763959610786 0 0 0
238 1 -1.5035351632071539 -10.996018307860908 4.227883557532907 0 0 0
1271 1 -0.27897594824200134 -6.493880366546061 12.404143443612726 0 0 0
244 1 -1.8231534807417056 -10.507371620469334 7.057768291394106 0 0 0
443 1 -13.564388648924767 -9.915811769135525 5.327343489641494 0 0 0
266 1 -12.028854242589086 -8.685250936436631 3.857995592175188 0 0 0
391 1 -12.530656606613755 -8.178327324255871 6.54322239567677 0 0 0
1380 1 -13.760087609871254 -7.199374754041985 4.722759556428789 1 0 0
445 1 -10.715375586058986 -9.531719465767923 5.645639543588532 0 0 0
268 1 -9.312372528419917 -7.99171041583792 4.27105684005234 0 0 0
279 1 -6.002791187380057 -10.427187533975157 4.942275155242124 0 0 0
447 1 -7.954675663044217 -9.025858244636563 5.958710248136269 0 0 0
438 1 -6.415573105975202 -7.52542984338479 4.497423587216828 0 0 0
270 1 -4.519651331368985 -8.779262753893413 3.2610436543547845 0 0 0
281 1 -3.253231536955056 -9.780209450722323 5.164063230651513 0 0 0
449 1 -5.028327097921206 -8.544488247845266 6.291910721110076 0 0 0
1381 1 -0.3026748648581954 -9.108831883619695 5.471027135303556 0 0 0
451 1 -1.703119325274269 -8.285708153350274 3.739956738830587 0 0 0
450 1 -2.2200631185382367 -7.851118911439548 6.446508026303485 0 0 0
382 1 -12.898787960057241 -5.381872229028698 6.190652698285065 0 0 0
435 1 -11.45490769803747 -4.064061126592454 4.695446164229688 0 0 0
444 1 -11.08004712015448 -6.758196076706003 5.339529836919079 0 0 0
436 1 -9.581641520903107 -5.3105030697079485 3.6113659508158893 0 0 0
384 1 -10.147386172084746 -4.825556505230798 6.530648864194061 0 0 0
446 1 -8.32927406570936 -6.195054204784377 5.4411773667497005 0 0 0
439 1 -6.745827367305852 -4.7257337648917535 3.9120496660855277 0 0 0
386 1 -7.393789359646721 -4.268868701457178 6.738094937106711 0 0 0
440 1 -3.5817252572673066 -7.108046110712314 4.737533759711573 0 0 0
448 1 -5.537978228519094 -5.642802377149778 5.760805110709883 0 0 0
263 1 -4.004532718297414 -4.271927838434525 4.2498915822923795 0 0 0
243 1 -0.7173498108079155 -6.554245996446142 4.958467677155339 0 0 0
388 1 -2.5666306758653015 -5.288434564336592 5.968733710406342 0 0 0
380 1 -1.1333828997626387 -3.6517376324587936 4.6226272951164145 0 0 0
426 1 -11.818287880377072 -1.1632348016695513 4.020577705373535 0 0 0
372 1 -13.339682453834751 -2.6361396340717693 5.580525986948041 0 0 0
373 1 -12.421830337016992 -0.8171899540293026 6.848219512666782 0 0 0
428 1 -9.058379452234194 -0.4179649393867546 4.342425466315602 0 0 0
374 1 -10.672412331230396 -2.0382971043503826 5.879208127264738 0 0 0
437 1 -8.776188647078488 -3.4066664882405817 5.001941184432363 0 0 0
376 1 -5.901995513679015 -2.9785248241083906 5.149426783009249 0 0 0
375 1 -7.6282397423873425 -1.5797438841922204 6.103067651935428 0 0 0
1347 1 -14.008743709448462 -9.66607737761452 7.989839046794144 1 0 0
430 1 -4.303592889603637 -1.3614745661372876 3.777474757543432 0 0 0
377 1 -4.8696504948380355 -1.1020435513026143 6.384575046876572 0 0 0
378 1 -2.9175789980525995 -2.4168442122943077 5.56121447376861 0 0 0
225 1 -1.8685476562260561 -13.217683086750752 0.16720075912575894 0 0 0
774 1 -1.5909012274647498 -0.7902510247921928 4.082409876811196 0 0 0
379 1 -1.9782817920225106 -0.46061163598249877 6.821650641787231 0 0 0
1348 1 -13.624972700066046 -12.51185581482022 8.489785624280367 1 0 0
1300 1 -12.364372289340006 -13.571769496354426 10.267233666962296 1 0 0
452 1 -12.15332543665103 -11.033587561183559 7.06360263046478 0 0 0
409 1 -12.707682636635397 -10.715106632068219 9.813848411957137 0 0 0
283 1 -11.777989887277268 -13.827159436991412 7.659103926875167 0 0 0
464 1 -9.070234091952717 -13.349545410500092 7.9028973794381105 0 0 0
462 1 -10.821770496059619 -11.99595504960428 8.908546070723036 0 0 0
466 1 -6.07212030633729 -12.708029771003735 8.396651654027318 0 0 0
404 1 -7.923951497896755 -11.46949720516848 9.22830882037279 0 0 0
467 1 -4.412383622831115 -13.382040877198849 9.87036648864096 0 0 0
460 1 -3.1299330449196177 -11.998731898405216 8.401013018017272 0 0 0
406 1 -5.043465871992874 -10.757513060130623 9.47325157075428 0 0 0
1309 1 -0.05129655199612948 -1.8250845869853762 5.874379767564717 0 0 0
1390 1 -1.2304441673173816 -13.361337021612078 7.527828184301248 0 0 0
245 1 -1.6194543236428096 -12.974946985849888 10.069265281539062 0 0 0
1340 1 -0.2348785867081009 -11.529163148011962 8.793192801045402 0 0 0
1262 1 -0.08478052787223511 -4.162903673299018 9.130817183327567 0 0 0
400 1 -13.208018655261572 -7.932209266692841 9.345933381230273 0 0 0
393 1 -9.788497743990664 -7.76482071632268 7.021615043138697 0 0 0
453 1 -11.32029510927691 -9.178485548990988 8.29603625445323 0 0 0
455 1 -9.358588867205064 -10.510501566072932 7.522073276841608 0 0 0
402 1 -9.944667680704065 -10.24721937436815 10.257923748362385 0 0 0
401 1 -10.307100837339435 -7.491431495406699 9.693653770896452 0 0 0
403 1 -8.282726008029254 -8.741672460653742 8.772517411191087 0 0 0
457 1 -6.484387679978167 -10.049220366174712 7.6188568067753355 0 0 0
395 1 -6.827751330745617 -7.193670204996872 7.237708230443625 0 0 0
459 1 -3.6899102778090267 -9.32732634485718 8.127434116146079 0 0 0
405 1 -5.692163470726737 -8.205129237001385 9.039233533697127 0 0 0
407 1 -2.1226958208604625 -10.185571233082179 9.647387607661445 0 0 0
399 1 -0.6579992552041585 -8.729615744680931 8.285568492424266 0 0 0
390 1 -2.4981255741898156 -7.36148702772797 9.206403526375079 0 0 0
392 1 -11.528153948465574 -6.359471582613031 7.990220846093019 0 0 0
1232 1 -13.548489339458865 -5.156797312415751 8.764044368902516 1 0 0
381 1 -11.990336915170854 -3.5983079290171727 7.4305411552851215 0 0 0
394 1 -8.776437526461084 -5.903874866946602 8.288222277668167 0 0 0
332 1 -10.618592516714742 -4.442042752854633 9.293921796827485 0 0 0
346 1 -7.381371379565399 -6.857955013789109 10.063321540976839 0 0 0
396 1 -5.8316396243981234 -5.33256798306912 8.473380632741202 0 0 0
334 1 -7.8235721023794085 -3.9819676345925945 9.54309618715997 0 0 0
397 1 -4.097223059624364 -6.739533901036527 7.51154873208589 0 0 0
348 1 -4.472828064228219 -6.14432745022984 10.204681042980548 0 0 0
387 1 -4.446462268866014 -3.8749443700521287 6.954812695011787 0 0 0
338 1 -3.0017192130504995 -4.761975887213628 8.807766458592427 0 0 0
314 1 -5.258318075622757 -3.204064535506941 12.777349760935374 0 0 0
441 1 -1.100650857324048 -5.971218056797143 7.818968163919587 0 0 0
331 1 -12.599363583163452 -3.3096913792401956 10.160937890628803 0 0 0
1222 1 -13.897056243259595 -2.2539933837116486 8.251213936116022 1 0 0
750 1 -12.926313711762063 -0.44848847906267153 9.649371818587051 0 0 0
743 1 -9.438157864094505 -0.17835167025902265 7.049100234984516 0 0 0
383 1 -9.178553818121017 -2.9539987832980863 7.642276174813114 0 0 0
326 1 -11.022259910796517 -1.7131010292628375 8.621914915024098 0 0 0
385 1 -6.3704668518836565 -2.5220030021296562 8.03326088253309 0 0 0
327 1 -8.091117770341516 -1.2169087735512143 9.102083247556878 0 0 0
336 1 -4.885794878439301 -3.460713461513892 9.781010035123037 0 0 0
328 1 -5.237741748858419 -0.6615908817518292 9.241964157325734 0 0 0
329 1 -3.396815837904116 -1.9749879818364882 8.170496087020299 0 0 0
389 1 -1.4592828535669433 -3.2335246128509123 7.324768205968303 0 0 0
330 1 -1.8772602881666707 -2.9551145085689097 10.151761664088605 0 0 0
1681 1 -0.6179947459865094 -1.566484172857706 8.59761269019914 0 0 0
317 1 -2.2089631074806295 -2.349540583856859 12.865309404875456 0 0 0
1708 1 -12.941227639591421 -13.213777290197534 13.129446568980958 1 1 0
25 1 -11.437573430637304 -11.803246532171698 11.700084151020919 0 0 -1
411 1 -9.454939904062826 -13.153716352457876 10.820128665172954 0 0 0
364 1 -10.191288850661909 -12.73493284184652 13.70775105798518 0 0 0
412 1 -8.831628458528709 -11.270747401789016 12.10639437748267 0 0 0
413 1 -6.464848134944347 -12.35725961839384 11.158837904500556 0 0 0
414 1 -6.540753307048735 -11.426916794124798 13.287614312640097 0 0 0
335 1 -6.617872130124531 -2.168216459085963 10.76114356516777 0 0 0
22 1 -4.484595692103255 -6.435225819852506 0.20986146950245832 0 0 0
416 1 -4.61603665617729 -12.8775368680951 12.495411475570473 0 0 0
408 1 -3.388478260570423 -11.553782037357253 11.073738278892238 0 0 0
370 1 -2.082075596743227 -12.559205245967586 12.969836260195562 0 0 0
242 1 -0.6885154453887985 -11.182189846501908 11.43546190984212 0 0 0
410 1 -11.8907387511298 -8.968753452748103 11.24270067608006 0 0 0
362 1 -13.308651536414834 -10.35330843871633 12.62097149226402 0 0 0
352 1 -13.616438786543277 -7.491453457759619 12.208182305709277 0 0 0