LAMMPS data file via write_data, version 2 Aug 2023, timestep = 0, units = metal

1870 atoms
3 atom types

-13.724610319724992 13.724610319724992 xlo xhi
-14.046247026657444 14.046247026657444 ylo yhi
-14.393214715769933 14.393214715769933 zlo zhi

Masses

1 55.847
2 1.008
3 1.008

Atoms # atomic

1868 1 -10.900770647163624 -13.36897890521094 -11.684643953887042 0 0 0
1816 1 -11.161968165278347 -10.9605648548767 -10.98284513515052 0 0 0
1829 1 -13.008975036268662 -12.618518037478575 -10.831353002662524 1 0 0
1815 1 -10.375581647876778 -12.896732503122564 -9.485714422178214 0 0 0
1817 1 -13.195435892103482 -10.228553848102175 -9.817260997378511 0 0 0
1863 1 -9.25449734107558 -9.876576045942134 -12.956810444878741 0 0 0
1702 1 -9.357737834315465 -9.222306508366445 -10.584200197834228 0 0 0
1091 1 -12.507448742400674 -13.015581411642636 -13.18470879109516 1 1 0
1798 1 -9.076227081447877 -11.7508335779001 -11.768374298990649 0 0 0
1814 1 -8.676194867922423 -11.192474057679206 -9.346530718444864 0 0 0
1800 1 -11.564795561433165 -10.320684272854436 -13.921485916259003 0 0 0
1799 1 -11.83729357658721 -8.998581797704261 -12.094101547236596 0 0 0
1867 1 -8.34852281068137 -13.709904875108931 -10.322196663492145 0 0 0
1744 1 -13.522922083761376 -10.76179744857557 -12.243120492563767 1 0 0
1861 1 -8.799877530759606 -14.02778388394036 -12.697448779782038 0 0 0
1864 1 -10.060691114988654 -12.09485481614341 -14.25424143090966 0 0 0
1795 1 -4.777429852821383 -10.000991584963216 -10.211623907797936 0 0 0
1796 1 -6.540952489857174 -11.946454006855829 -10.561646583436454 0 0 0
1797 1 -5.30458428915067 -10.609476037780043 -12.544741285904903 0 0 0
1794 1 -4.397494002072472 -12.655286040848944 -11.320832257472228 0 0 0
1680 1 -7.258598584673087 -9.922342630113164 -11.622530671158405 0 0 0
1700 1 -6.85646621800296 -9.335617187466305 -9.335382077825924 0 0 0
1860 1 -4.992037992626855 -13.111649090569625 -13.58868752132705 0 0 0
1855 1 -7.34718001378994 -12.010312603200306 -13.350920650212261 0 0 0
1854 1 -3.0573890043473018 -11.163320267990505 -13.797616076117976 0 0 0
955 1 -5.892741148551411 -13.7961782421075 -9.069674269806091 0 1 0
1781 1 -7.073725135144771 -9.165779963521235 -13.991865365654355 0 0 0
1779 1 -3.5597355145637284 -8.820610683491235 -12.631814562378192 0 0 0
1777 1 -2.843129372963105 -10.849261324560542 -11.396374361257111 0 0 0
1810 1 -4.0614826577556205 -12.083785343953162 -9.01566104396314 0 0 0
1859 1 -2.7127196345519184 -13.620795873341262 -12.642633067056154 0 0 0
1015 1 -6.397892200988979 13.852084209460664 -11.597128953982327 0 0 0
1793 1 -2.424793157403668 -10.18284690907499 -8.982275898070828 0 0 0
1775 1 -0.455247190811944 -11.030227892235619 -10.106378678504566 0 0 0
1852 1 -0.9048160894430506 -11.466225460376432 -12.483172515823213 0 0 0
1850 1 1.6781872937419848 -11.929570176417243 -11.03102839573046 0 0 0
1858 1 -0.08108197163047848 -13.708238746355908 -11.467123903103836 0 0 0
1774 1 1.3165733220874447 -9.249322626629786 -9.819638007281785 0 0 0
1792 1 -2.1104264028360635 -12.898970706633966 -10.245062209286894 0 0 0
1776 1 -1.1647849383962257 -9.0038267605645 -11.37034782675229 0 0 0
1851 1 1.5534782472195818 -12.55783042397775 -13.497480125297457 0 0 0
1762 1 0.8749292650224216 -9.883720745950932 -12.35195860329489 0 0 0
1857 1 2.4092576129454244 -13.834269662906319 -9.552495920975542 0 0 0
1843 1 2.0627180548338497 -10.08420782861601 -14.267183245443748 0 0 0
1870 1 -1.0214961939637508 -13.125244453260882 -14.33987468553261 0 0 0
1760 1 3.3304500162037307 -10.099175085844827 -10.821216065758708 0 0 0
1842 1 3.82718709199316 -12.502334138034687 -11.891829906357302 0 0 0
1840 1 6.2899625784336095 -12.878574239200574 -10.68905624119633 0 0 0
1841 1 4.30350815888432 -10.198089681789753 -13.24892709886373 0 0 0
1848 1 4.249035026809661 -12.05038660071098 -9.445392638072814 0 0 0
818 1 6.055212024179422 -12.248236206569526 -13.673175558207063 0 1 1
1749 1 5.731565963597006 -10.740651048357837 -11.629807567047433 0 0 0
1756 1 8.020250144652408 -10.681103172892985 -10.24387899477124 0 0 0
1839 1 7.800574304334788 -11.344610561936488 -12.542805054476013 0 0 0
1869 1 7.850446166919387 -13.767045153452262 -13.971914183586106 0 0 0
1758 1 5.858784199686244 -10.18531146678904 -9.3457541275082 0 0 0
805 1 6.71039051757916 -9.326279378315512 -14.033020146671056 0 0 1
1757 1 7.467648563399102 -8.82442034246877 -11.586744364628613 0 0 0
1838 1 8.490724577429319 -13.348338012870972 -11.47372628413017 0 0 0
1846 1 8.71559175420856 -12.962227935192852 -9.058105012532042 0 0 0
1653 1 7.7178081561823575 -8.320984990322007 -9.057458703054005 0 0 0
1832 1 10.046065180937653 -11.893638175106929 -13.456414689144184 0 0 0
1837 1 10.137928261443832 -11.573303440032888 -11.200490674159708 0 0 0
1835 1 12.455533487116824 -11.919737723309416 -9.707657558836868 0 0 0
1745 1 11.774792163336155 -9.984088833940898 -10.85271795156137 0 0 0
1830 1 12.327797653372798 -12.499064345501266 -12.072990866704775 0 0 0
1747 1 9.439941369479879 -9.532361948584022 -12.859878837897739 0 0 0
1836 1 10.78468268845133 -13.644176932859294 -10.103391503823968 0 0 0
1755 1 9.698847294281848 -9.027426286243628 -10.187786136644466 0 0 0
1831 1 11.61336029085139 -10.285063156994344 -13.20240221543932 0 0 0
1754 1 10.423092927965353 -11.109862171847052 -8.808188354882414 0 0 0
1721 1 -11.366289107355273 -8.49751358374917 -9.73235599643103 0 0 0
1703 1 -10.130199862190633 -7.199886117272011 -11.88746159777278 0 0 0
1705 1 -10.700551546403192 -5.303264489740707 -12.960294754897458 0 0 0
1605 1 -12.481627709085 -3.8137334500419673 -9.624786335555239 0 0 0
1603 1 -10.477407552851869 -4.629273505224647 -10.635881261919561 0 0 0
1604 1 -12.225239749019128 -6.384457528206213 -10.827709635622256 0 0 0
1722 1 -12.886687066857222 -4.437896841038331 -12.05444764025188 0 0 0
1602 1 -9.69460285216796 -6.5499591013464595 -9.420729458195169 0 0 0
1682 1 -8.591200559742028 -7.156450947358657 -13.583994348861804 0 0 0
1633 1 -8.750273412531056 -3.2665990935540883 -12.649412998751227 1 0 0
1583 1 -8.362570539232829 -5.336319480899633 -11.68030488908688 0 0 0
920 1 -13.051646782736631 -5.671233529567633 -14.320985856884606 1 0 1
1801 1 -11.40747046348206 -7.463648594488699 14.377900500646337 0 0 -1
1601 1 -8.044041676642657 -4.933982285171574 -9.307362372633671 0 0 0
1676 1 -3.130606995469881 -8.247300402068156 -10.326033790283173 0 0 0
1678 1 -5.608602494360708 -8.044066187407863 -11.75849736231739 0 0 0
1679 1 -6.135309447878394 -6.077642834683298 -12.70368785435075 0 0 0
1701 1 -7.70625784671492 -7.377121390700614 -10.643082916220752 0 0 0
1677 1 -3.7970220754794024 -6.189700025312303 -11.219424138274869 0 0 0
1561 1 -4.446069670195435 -4.194096356368664 -12.376451244996105 0 0 0
1581 1 -5.908353189086853 -5.523025995183522 -10.274907489999638 0 0 0
1580 1 -4.330784706378697 -3.7225760697233135 -10.113566436782836 0 0 0
408 1 -6.540260569605742 -3.801334040218931 -13.633775907891295 0 0 1
1582 1 -6.679230944978819 -3.62790811567651 -11.410688653526101 0 0 0
393 1 -3.9661585801862334 -6.412804566130445 -13.820378915024932 0 0 1
1699 1 -5.0152085069645995 -7.586333073375177 -9.23068348100961 0 0 0
1579 1 -3.6229370593807033 -5.614661066334886 -8.844765503362053 0 0 0
1484 1 -6.364921523823373 -3.0631913225772553 -9.089289619036318 0 0 0
1763 1 0.2761887900375708 -7.932041546729094 -13.398460849822795 0 0 0
1778 1 -1.7283191258813613 -6.81968083239564 -12.509135445733992 0 0 0
1662 1 -0.6170095350812517 -2.99278665018835 -13.319620633042556 0 0 0
1559 1 -2.1907102840170616 -4.320736038009022 -11.07750646011154 0 0 0
1661 1 -2.156370046971505 -4.672008201825795 -13.277527686085113 0 0 0
1660 1 -0.06450348585339505 -5.220779672269183 -11.86374354124737 0 0 0
1675 1 -1.439025243208496 -6.463991205160138 -9.889536376964323 0 0 0
1557 1 0.2142170864236146 -4.531513466608692 -9.697671335462147 0 0 0
1659 1 0.7785007241437185 -7.194528647257894 -11.08971467226287 0 0 0
1658 1 2.4395568688041855 -5.37106038700567 -10.599294504487364 0 0 0
1544 1 1.5322415238987848 -3.4803028599606307 -12.095609480691966 0 0 0
1648 1 2.244352506041027 -5.974108590566317 -12.913954052245916 0 0 0
1761 1 2.7752559903427 -8.152717860042642 -12.235165998695553 0 0 0
1556 1 2.0219225760299597 -2.8339078333372747 -9.505119998658262 0 0 0
1674 1 -0.6765899226218828 -8.469449688044385 -8.885474815730408 0 0 0
1657 1 3.1509273541059244 -7.471497419391521 -9.643015493642903 0 0 0
1759 1 5.167610503011257 -8.253321635308906 -10.83196560822497 0 0 0
1646 1 4.395290142767241 -6.086014351168946 -11.652539454435246 0 0 0
1751 1 6.616207664995809 -6.8214922171662815 -12.587086686677292 0 0 0
1644 1 6.158297438988814 -4.220111238185499 -11.687082241893522 0 0 0
1656 1 4.745560984728229 -5.725782301551549 -9.243727662851459 0 0 0
1643 1 6.924730431383448 -6.397593245115299 -10.259313392686355 0 0 0
1542 1 4.159517618905415 -3.7134141622030423 -10.5619252593229 0 0 0
698 1 4.5952047935273725 -7.483992852228863 -13.68685295641819 0 0 1
603 1 3.7558228020300284 -4.035690783112697 -13.04331487305977 0 0 1
1540 1 6.504971268951209 -3.8041773542552253 -9.266049499391134 0 0 0
1638 1 8.28882172422448 -5.035196024111951 -13.064408206044352 0 0 0
1647 1 5.535336387577523 -4.733594079116193 -14.162638456207269 0 0 0
1538 1 8.667325949068108 -4.552864034878821 -10.419549992373366 0 0 0
896 1 7.386052167705731 -2.8099851892217025 -13.585155191883466 0 0 1
1634 1 13.622726375858154 -8.240450570072243 -13.63374872105813 0 0 0
1833 1 8.611977041384556 -7.510341131759225 -13.555897570240797 0 0 0
1704 1 13.45069578766541 -8.217405510850934 -11.091480052281335 -1 0 0
1619 1 13.241154998663976 -5.566718866927335 -9.972520233969743 -1 0 0
1748 1 10.379279104567456 -5.954430642259778 -13.584746255435528 0 0 0
1742 1 12.992027522833343 -6.166880539472296 -12.346712588787028 0 0 0
1640 1 9.04146976835948 -6.943006800528875 -11.4268842045786 0 0 0
1536 1 10.795436083442429 -5.326739091462118 -11.250520081288796 0 0 0
1650 1 11.537262335993326 -7.3388549746165745 -9.916708836517941 0 0 0
1746 1 11.146103952080239 -7.916899522175535 -12.185855849164291 0 0 0
1743 1 12.45802464076126 -3.460231755736517 -11.134212649346063 0 0 0
1641 1 10.0819836347358 -3.439221635836775 -12.37980167941474 0 0 0
100 1 12.322327239408192 -4.150176430527585 -13.553269123822236 -1 0 1
1642 1 9.472178835766027 -6.668033210591474 -8.931330820683797 0 0 0
1530 1 10.40314817764057 -2.9647973632518703 -10.063157580662592 0 0 0
1548 1 11.097938142953357 -4.817666039739349 -8.815902364408965 0 0 0
1486 1 -8.699528302804431 -2.7199258695030295 -10.389422492436331 0 0 0
1586 1 -10.362087706123042 -2.5618566514871723 -14.061237201529787 0 0 0
1585 1 -11.10247317598713 -2.599401498368655 -11.847831750413551 0 0 0
1466 1 -11.388357115212639 0.05139632337102995 -10.709744195433991 0 0 0
1488 1 -13.102544129498671 -1.8314372041766998 -10.820880424544562 0 0 0
1525 1 -9.510256291510697 -0.7779095389722261 -11.947767847141554 1 0 0
1367 1 -9.678684328952514 1.7783217924775752 -10.524563662681432 0 0 0
1635 1 -11.853155135520586 -0.6637922171784627 -13.197616504230137 1 0 0
1465 1 -9.835894928648202 1.279629660121815 -12.94505216789178 0 0 0
1504 1 -10.754207181048603 -2.0440858124656724 -9.3782617609771 0 0 0
1489 1 -12.157338788135267 2.0155832884245726 -11.926670148943161 0 0 0
1487 1 -8.946428880465767 -0.203690372123301 -9.342325310831505 0 0 0
1388 1 -11.850128638839404 2.595098849486238 -9.530619961933006 0 0 0
1639 1 13.650992263432201 -2.2931544484764235 -13.070322317485413 0 0 0
1467 1 -11.57854293832593 1.9018388586308141 -14.223003813193555 0 0 0
1416 1 -13.50710441862609 0.7732182986367846 -9.755426199057354 1 0 0
1584 1 -7.192649189919315 -1.5029209276992308 -12.602497139902553 0 0 0
1365 1 -7.735934012711505 0.8670473489529105 -11.457042114645986 0 0 0
1464 1 -6.852947810563509 -0.9445078877322537 -10.225646713896738 0 0 0
1462 1 -4.878754811531792 -1.7860770509441863 -11.579355238764121 0 0 0
1463 1 -5.5722900076175605 0.3137717582998203 -12.486003107290223 0 0 0
1363 1 -5.234038025412815 0.7959480532759571 -10.076291241780659 0 0 0
1447 1 -7.590378437736009 0.596404040168105 -13.789777420598046 0 0 0
1461 1 -3.1770451514292617 0.5096831065310461 -11.212239677156942 0 0 0
1562 1 -3.3322811701466257 -0.06604925510305115 -13.470497031235736 0 0 0
1563 1 -5.254689483959044 -1.938869479645561 -14.197292401618169 0 0 0
1344 1 -4.007435726254194 2.2418469277896875 -13.023598849884026 0 0 0
1384 1 -7.350682796253751 1.5885700590523903 -9.187576381358086 0 0 0
1560 1 -2.7977711151835614 -2.2821028125862064 -12.717778582842534 0 0 0
1483 1 -4.6062317106459165 -1.207636781114502 -8.813998352996336 0 0 0
1346 1 -6.272399771464459 2.851053373971581 -14.239880458240087 0 0 0
1362 1 -3.515352311548776 2.7560475285297237 -10.167880572324535 0 0 0
1460 1 -2.610555004301709 -1.7971014339017994 -9.833247865605603 0 0 0
1558 1 -0.5150240014853296 -2.5903221766369846 -10.908135990217698 0 0 0
1546 1 1.0039465373406227 -1.0601985340624935 -13.068196528429734 0 0 0
1443 1 -1.1911066557686727 -0.622570173589672 -12.056022921593147 0 0 0
1441 1 1.3153428398387526 -0.8307132472950087 -10.61381068831837 0 0 0
1442 1 0.6818811189394225 1.0907989237046358 -12.084250309769663 0 0 0
1459 1 -0.7087138489250577 -0.11339762235057194 -9.647653336796463 0 0 0
1445 1 -1.5868882465657972 1.4769909102340808 -13.103765533771867 0 0 0
1342 1 -1.2304485998843138 1.907226506833032 -10.721216905279977 0 0 0
1340 1 1.0203094523252396 1.6457358412594978 -9.487752578960396 0 0 0
1429 1 2.357042645695117 2.194511621631438 -14.251986236028644 0 0 0
1440 1 2.8600891826623744 0.40535556215521673 -12.769724152258702 0 0 0
1325 1 2.394649164183072 2.778215021374052 -11.830210780147976 0 0 0
1338 1 2.9976097993242377 0.9177873687179705 -10.54678233891772 0 0 0
1545 1 3.161744548792999 -1.8535883815664942 -13.988905472990458 0 0 0
1543 1 3.3096837499585376 -1.5964981288867257 -11.442178690996748 0 0 0
1532 1 7.864902114688324 -2.385483626127961 -11.382488845093746 0 0 0
1534 1 5.449406402226469 -1.968730534172014 -12.691331837017458 0 0 0
1439 1 3.7205168594309725 -1.0186649977669333 -9.139686623965598 0 0 0
1541 1 5.735717179017545 -1.6595349812887186 -10.185360503198101 0 0 0
1427 1 5.272050244666087 0.2606004883893416 -11.68367834081463 0 0 0
1425 1 7.659130901076498 -0.041899899568413446 -10.340988865087546 0 0 0
1426 1 6.895399898225747 2.0237387184491276 -11.597140979857306 0 0 0
1533 1 6.968546668105919 -0.10073214638272887 -13.450459097976728 0 0 0
1438 1 5.5662657835678395 0.669693377800952 -9.20853766406393 0 0 0
1428 1 4.578922098228208 2.4349604070288535 -12.823688662250792 0 0 0
1321 1 7.3298257660246975 2.4739465649128114 -9.095172827847062 0 0 0
1539 1 8.185930404538958 -2.0320651757031847 -9.10363489022307 0 0 0
907 1 6.876317946890374 2.2231096749260004 -14.28780924655574 0 0 1
1323 1 4.799056093234679 2.6597208760960847 -10.460654088842372 0 0 0
1526 1 13.332636291963126 -0.0260642447891275 -12.027390905121404 0 0 0
1420 1 8.990166858588545 1.1147137730619026 -12.492381450369386 0 0 0
1636 1 9.205196057481217 -1.1930680802489242 -13.633819062589243 0 0 0
1529 1 12.12220525209294 -1.1179634672366383 -10.165641272679292 0 0 0
1531 1 9.921010529231186 -0.9158057007160494 -11.305649065708144 0 0 0
1637 1 11.417296129874334 -1.5825033736869045 -12.897455112185332 0 0 0
1418 1 11.40422424894281 0.9168837102388263 -11.229649243607765 0 0 0
930 1 11.386710235958923 0.9811372348897383 -13.899226547992086 0 0 1
1424 1 9.416289275734648 1.5624857793255895 -10.16772431603502 0 0 0
1369 1 13.169243477463851 2.12137944665934 -13.150140895761709 -1 0 0
1423 1 10.129762691890214 -0.29600291695146197 -9.020477676943454 0 0 0
1422 1 11.77574954611547 1.519670696274579 -8.852421771657532 0 0 0
1348 1 -8.127016488462885 2.786904673987845 -12.776935169949516 0 0 0
1248 1 -10.939078687660164 5.8304805406619415 -13.074223528201543 0 0 0
1270 1 -10.83706207492916 6.349126691033277 -10.631795274190138 0 0 0
1271 1 -12.480914363651037 4.4746307890443155 -10.853606673528473 0 0 0
1368 1 -10.524905131604106 3.7338745271831044 -12.134628267400359 0 0 0
1269 1 -10.115875537445655 4.414241485567143 -9.504929180687668 0 0 0
1173 1 -12.904353943625017 7.086934083683751 -9.562450830325552 0 0 0
1250 1 -12.828172714672816 4.170131769789432 -13.395499908732553 0 0 0
1306 1 -13.241978298490743 6.486332186759974 -12.00351305958845 1 0 0
1268 1 -8.694943049983525 5.385308095319015 -11.658823562391865 0 0 0
1347 1 -8.634313070813299 4.8516945880466125 -13.966931855318931 0 0 0
1249 1 -9.231916953476105 7.467037076799784 -12.75977527678479 0 0 0
1169 1 -8.426098721819173 6.22200484247 -9.308217804309908 0 0 0
1150 1 -9.182544980732334 8.082969993427646 -10.605304152469937 0 0 0
1364 1 -5.891741713314875 2.806549614549027 -11.41192104441264 0 0 0
1366 1 -7.963869445221512 3.51858389475219 -10.545533334729203 0 0 0
1244 1 -4.149452839161647 4.885026371906115 -11.237571419052376 0 0 0
1345 1 -6.478315869730525 4.887930429213522 -12.696813776360985 0 0 0
1245 1 -4.632260163160778 7.115538021256057 -10.247374758532203 0 0 0
1266 1 -6.323512971339232 5.305927207166796 -10.225077130171893 0 0 0
1127 1 -5.060150549571395 6.73910671573238 -13.013396354902603 0 0 0
1329 1 -4.315067333651568 4.4587468747839445 -13.538029212020922 0 0 0
1246 1 -6.94165914723281 7.475759265029467 -11.717998451797131 0 0 0
1265 1 -5.510209434361167 3.4790176730265294 -9.053610889256333 0 0 0
1148 1 -6.567370905576111 7.915720741767814 -9.22724984500777 0 0 0
1229 1 -7.550251216627224 7.267787346475419 14.38692212428975 0 0 -1
1227 1 -2.5905167468440826 6.235461410250718 -13.326064395475452 0 0 0
1264 1 -3.8467197345063067 5.243211298104896 -8.915631521192651 0 0 0
1243 1 -2.3400340568313975 6.424442518449293 -10.942227305744003 0 0 0
1343 1 -2.156374743679182 3.7689050866720386 -12.025094478591951 0 0 0
1225 1 -0.5270572146090675 5.546919474700861 -12.529685076926615 0 0 0
1327 1 0.003988524255429837 3.1962158835198586 -13.114616992395064 0 0 0
1223 1 2.0690704958066224 5.41921686168833 -10.597619204909995 0 0 0
1341 1 0.41391299128437176 3.7457086372540402 -10.740901922455894 0 0 0
1242 1 -1.8477414889651893 4.276591161772725 -9.673913383106147 0 0 0
1241 1 -0.06377878297111295 6.178166938572716 -9.675171143195325 0 0 0
1212 1 1.6854837063345922 4.698494037768317 -12.855357142213387 0 0 0
1224 1 1.2437232055493261 7.291490415541617 -11.907524726415527 0 0 0
1123 1 1.6846859688744242 7.925035041055299 -9.506753935986445 0 0 0
1214 1 -0.48658988361535904 8.154567419341234 -13.54974824218417 0 0 0
1339 1 2.6875322562141193 3.329940256030124 -9.409609642685444 0 0 0
1125 1 -0.6287742467533395 8.285969346772951 -10.985955437144067 0 0 0
1326 1 1.1365266587283198 6.588480739572994 -14.316462668241952 0 0 0
1210 1 5.936223742058935 6.20706589076832 -11.804829862498163 0 0 0
1314 1 6.587537228536917 4.058739168474212 -12.664771285585578 0 0 0
1322 1 6.463627592674584 4.409385490526468 -10.255286789940644 0 0 0
1324 1 4.07112270701624 4.480685245220755 -11.637991940509526 0 0 0
1222 1 3.808301963094113 7.103443324407724 -10.589926774617437 0 0 0
1316 1 5.041107299501988 4.738653859901152 -14.112622916725142 0 0 0
1213 1 3.490198451036356 6.574054958616898 -13.054974227595569 0 0 0
1220 1 6.250394212752568 7.015078172658704 -9.189116533609852 0 0 0
1313 1 8.325643399427289 5.615429178047837 -12.472468765263855 0 0 0
1221 1 4.467713232128283 5.271388385616731 -9.22987672694373 0 0 0
1203 1 7.741320707841911 7.783379937594734 -13.64253500914881 0 0 0
1208 1 8.249711249416691 6.168844572678669 -10.131497621372873 0 0 0
1209 1 7.735195675784233 8.346836538476552 -11.394478623994681 0 0 0
906 1 8.903507458085798 3.3040373964789644 -13.384565398837312 0 0 1
1312 1 8.706788336457823 3.569247341931991 -11.025668793319033 0 0 0
1315 1 5.715549913220986 6.877661477500155 14.183550896945398 0 0 -1
1307 1 13.078559580180588 2.780465648045226 -10.977637464686577 0 0 0
1419 1 10.799667027884936 2.9521628987045467 -12.270901939372548 0 0 0
1309 1 12.788771040043631 5.317855223756453 -9.980539053843833 0 0 0
1310 1 11.02605073376554 3.5486762955278017 -9.929099309929377 0 0 0
1311 1 10.559005546883824 5.491106628352316 -11.23542619643565 0 0 0
936 1 12.438212452794243 4.809998278909308 -12.440709442025245 0 0 1
905 1 10.320491343245685 5.2253253566524265 -14.067414896695404 0 0 1
926 1 12.134903306316886 6.981474234270767 -13.379797007456009 0 0 1
1199 1 12.177380458960737 7.427215872035287 -11.100558117684296 0 0 0
1201 1 9.766496565738617 7.581014640562884 -12.464315073249795 0 0 0
1207 1 10.067909185610706 8.141479065066186 -10.149995359599945 0 0 0
1320 1 9.07129669858891 4.319496937636259 -8.782832578323116 0 0 0
1152 1 -11.437814686572981 8.369448767851761 -11.884777485133046 0 0 0
1055 1 -11.827425705317518 10.96016150351834 -10.876927206848755 0 0 0
1131 1 -9.665373483998462 10.296770422996463 -11.647671179485334 0 0 0
1053 1 -9.443884992051029 10.783100766257188 -9.306691920911618 0 0 0
1052 1 -10.111423526175118 12.682578801549159 -10.775629810961947 0 0 0
1151 1 -11.503888099204055 10.800549122598426 -13.1679719010688 0 0 0
1054 1 -12.680196568036834 12.995900386722365 -12.041828714876656 0 0 0
313 1 -10.776735428973879 13.250418449247224 -13.710287951952578 0 0 1
1172 1 -11.062724445157187 8.91919516799135 -9.53324488972508 0 0 0
306 1 -9.808552573324441 9.360803387714466 -14.008323357724484 0 0 1
1056 1 -12.216360180524818 13.516752823171473 -9.58683317663283 0 0 0
1153 1 -13.58425403197223 9.139153950769497 -10.72242779366388 0 0 0
1862 1 -8.858249515467193 11.61017123919737 -14.276173279666901 0 -1 0
935 1 -13.533889184512278 8.646919045558768 -13.176484807330814 1 0 1
1226 1 -3.1345416777904394 8.41258899450538 -12.308503944010965 0 0 0
1033 1 -8.022063174370096 11.99679266421667 -11.639022880091117 0 0 0
289 1 -6.735759228759604 13.465714538298663 -13.807934195436724 0 -1 1
1247 1 -7.765600363149958 9.502649524492078 -12.708585167092401 0 0 0
1149 1 -7.435798314524 9.84715232132011 -10.326082268382425 0 0 0
1031 1 -5.628749773157383 11.735036228827816 -10.296246651793265 0 0 0
1129 1 -5.2902234218529856 9.350844386615197 -11.323612650782438 0 0 0
1130 1 -6.159771621330299 11.299180133465782 -13.210554050099503 0 0 0
1029 1 -3.3068879089555097 10.868822335167799 -10.997647243067192 0 0 0
1014 1 -4.375726210468439 12.709096683125903 -12.279804682944313 0 0 0
1866 1 -7.645236545687361 12.420860560950796 -9.24117043837553 0 -1 0
1030 1 -3.9124777276032887 13.447270000304805 -10.104425046049586 0 0 0
1128 1 -3.751453387585933 10.496419858094157 -13.369142183666547 0 0 0
1228 1 -5.680920887027444 8.977198478864342 -13.752385860079324 0 0 0
1145 1 -2.889207197413457 8.910533931924462 -9.826123116383686 0 0 0
1147 1 -4.920103647678731 9.740585262240554 -8.84470001033283 0 0 0
1048 1 -3.1552571660123814 11.424796897560249 -8.820511368476236 0 0 0
1112 1 0.2948698443565476 11.948661810040143 -12.304611691032417 0 0 0
1126 1 -1.4781785192553851 10.321283742773673 -12.456611226617023 0 0 0
1012 1 0.7629078654241042 12.53458431848821 -9.918493621208894 0 0 0
1124 1 1.2367766948268262 9.842319119524344 -11.566156768655894 0 0 0
1013 1 -1.7138110214846876 12.7630375849973 -11.053527408470693 0 0 0
1113 1 -1.7187574656270073 12.51562919456267 -13.619560599911647 0 0 0
1027 1 -0.8048914465165407 10.55804613067152 -10.02966774235431 0 0 0
1111 1 2.5009145371482653 11.289982395323442 -13.195583891489937 0 0 0
1002 1 2.137591506220131 13.611120870753862 -12.00158388727476 0 0 0
1110 1 2.813861344407261 11.730372851427713 -10.786276152288305 0 0 0
612 1 0.10033729963358873 10.616479826991952 -14.254730633072434 0 0 1
1849 1 3.1443898263003582 13.594489468331979 -14.079423230561094 0 -1 0
1109 1 3.185943845253295 8.847877720888448 -11.903921174146113 0 0 0
611 1 1.7904276035920965 8.999732539238458 -14.378772791968771 0 0 1
1098 1 5.503447694579155 8.38754383122469 -12.650809407978501 0 0 0
1001 1 5.1533604222938045 13.8276506610927 -12.870857948853299 0 0 0
1099 1 7.0876837894542 10.232563931438907 -12.593877021255958 0 0 0
1107 1 5.474616221844947 9.006525085694694 -10.523095855021971 0 0 0
1108 1 4.947880288119208 11.16665988628024 -11.985290140331543 0 0 0
1106 1 7.242801176084278 10.831069459130383 -10.392968795679305 0 0 0
1000 1 6.766591733765637 12.754125252725043 -11.577693934322891 0 0 0
1009 1 5.067358128534071 11.596299883413646 -9.421835916982143 0 0 0
1122 1 3.521537004529552 9.74368440219823 -9.539667716568891 0 0 0
1211 1 4.137207737475428 9.007456167711052 -14.261605192713205 0 0 0
715 1 6.89013420708843 12.053105684672495 -13.98647033140265 0 0 1
1008 1 6.970893792367399 13.41188283554457 -9.197676757211099 0 0 0
1010 1 4.514669268401725 13.581041593345013 -10.521060301555597 0 0 0
1105 1 7.793493124141353 8.867810655448764 -9.053442426913453 0 0 0
1097 1 8.835182520232323 12.11971239027854 -12.637963179937518 0 0 0
1093 1 13.49840842500063 11.688750023719521 -9.775776868528954 0 0 0
1090 1 13.226136500875924 10.983991723605314 -12.103005391925883 0 0 0
1202 1 9.111607506916098 9.873179869919031 -14.062059542034781 0 0 0
999 1 8.98479666726714 12.637709556213736 -10.156072357108453 0 0 0
1094 1 11.938512822320138 9.861737428591695 -9.802428187768875 0 0 0
1095 1 11.021729547471136 11.967272081035787 -11.128652945024891 0 0 0
1096 1 9.560903085849525 10.11093720512461 -11.528730332668697 0 0 0
1200 1 11.547542249984495 9.341785022900382 -12.550609351781224 0 0 0
1092 1 11.0012249611902 11.542216817123087 -13.439383252412028 0 0 0
900 1 12.731881893678963 13.184258213998913 -13.23008293139914 0 0 1
995 1 12.835680607079915 13.692702935681428 -10.829608222989005 0 0 0
1104 1 9.653416374646564 10.598457222357219 -8.999733762651125 0 0 0
211 1 13.618993558452175 10.74484065501606 14.35408104363751 -1 0 0
996 1 10.404405840923307 13.896088996303337 -12.775818046020277 0 0 0
969 1 -12.475474568058154 -12.158248341541347 -8.42421029493751 0 1 0
1720 1 -10.748091436212249 -10.36506188001431 -8.47491783965693 0 0 0
1731 1 -10.251333714437983 -9.922524665026097 -6.011626392821929 0 0 0
1732 1 -12.497053411524567 -8.976383013649189 -4.894615221046873 0 0 0
1823 1 -10.038679441608087 -12.426128946411655 -7.077317289895935 0 0 0
1825 1 -12.735999833624465 -9.690138004752303 -7.304665517061059 0 0 0
1828 1 -12.145887715790733 -11.542585255102805 -6.044662497822234 0 0 0
1730 1 -9.760992797464986 -11.945218507559508 -4.828055018189913 0 0 0
1827 1 -11.579639999426032 -13.672262363976914 -4.748576736763482 0 0 0
1624 1 -9.943303595402103 -9.164614476595535 -3.737488006744151 0 0 0
1738 1 -11.70401535499161 -10.995433084103674 -3.679994129552796 0 0 0
1826 1 -9.064954977958363 -13.856341376602856 -3.5694583595378244 0 0 0
1718 1 -8.203295088798052 -10.57888598492248 -7.008032640080652 0 0 0
944 1 -13.47961881404507 -12.66269043702858 -3.4878244962163585 1 1 0
1719 1 -9.001783744021605 -8.517375305518762 -8.283335230464697 0 0 0
1729 1 -7.9221663926794506 -10.111226052430238 -4.5809587326464865 0 0 0
1813 1 -8.011639072613024 -13.151803092578989 -8.043273271444143 0 0 0
1716 1 -5.9476665581326165 -10.844731228952524 -5.624583032289891 0 0 0
1811 1 -5.506707878162032 -13.371522579782829 -6.759195861090655 0 0 0
1812 1 -6.1870245792555165 -11.384568059219212 -8.058511093016811 0 0 0
1821 1 -5.10477331166728 -12.723557588716941 -4.447964197641037 0 0 0
1822 1 -7.569768259399774 -12.51931066040326 -5.671889768207016 0 0 0
1714 1 -3.79426548550547 -11.566507028951762 -6.530870775449027 0 0 0
1698 1 -4.474003055805106 -9.502462572744964 -7.9196147224401425 0 0 0
1715 1 -4.076156707251542 -9.119932329209448 -5.351562825840391 0 0 0
1717 1 -6.5732697462975365 -8.822068407919243 -6.960884726117182 0 0 0
1809 1 -3.0198589055949068 -13.581373738301872 -5.433091706351764 0 0 0
1725 1 -3.5601640197193873 -10.944938663581878 -4.012459516651621 0 0 0
1728 1 -7.170970559534578 -12.284640980302516 -3.2536077444649667 0 0 0
1865 1 -3.5343074303921096 13.962263152237458 -7.727588733122418 0 -1 0
1727 1 -5.755594907226131 -10.34605605222194 -3.241756945054332 0 0 0
1790 1 0.29423100805521685 -13.057038234922018 -8.774414216916435 0 0 0
1773 1 2.0088000409123126 -11.22785029331479 -8.695721606375729 0 0 0
1791 1 0.08652829603468781 -10.490451562642518 -7.569089936487673 0 0 0
1696 1 -2.0246361254465075 -9.8470891053007 -6.528053819655322 0 0 0
1808 1 -1.8491781316854663 -12.230205621118948 -7.80675784948486 0 0 0
1694 1 0.2261829510835014 -9.877730247219592 -5.235105483189043 0 0 0
1806 1 0.6729696027991583 -12.470513847044828 -6.383187608342833 0 0 0
1789 1 2.3891634172150873 -10.546825433897908 -6.126884260942967 0 0 0
1713 1 -1.7353723657449986 -9.166007340121485 -4.063226394829574 0 0 0
1712 1 -1.4311991637063848 -11.802831067006466 -5.206345738790921 0 0 0
1710 1 0.984135575199474 -11.868367763514385 -4.043302097456694 0 0 0
1807 1 -0.5568584312692604 -13.725038829887916 -4.197571794558591 0 0 0
1788 1 2.7151513197559325 -13.265737418587081 -7.25815508972774 0 0 0
1692 1 2.7993158689256283 -10.253578287641202 -3.7442214247540235 0 0 0
1672 1 1.7435344379015234 -8.535879180132714 -7.412425762739053 0 0 0
1805 1 3.2081620503895003 -12.611881624233565 -4.84675009027551 0 0 0
1772 1 3.7877660085549607 -9.514343492396716 -8.287301922574308 0 0 0
1847 1 6.581505800350666 -12.218534997770732 -8.216085119816334 0 0 0
1770 1 6.128123756972201 -9.659189864350044 -6.910343531558264 0 0 0
1771 1 4.513410447503901 -11.497519398533855 -7.067224339298854 0 0 0
1787 1 4.877636563009311 -10.787477453249231 -4.82923571318217 0 0 0
1769 1 6.848206654334373 -11.689472990855858 -5.861190056447457 0 0 0
1785 1 7.493848272505602 -13.527011983085899 -4.466874485019648 0 0 0
1786 1 5.158056412266163 -13.504200098715506 -5.803979422523968 0 0 0
1668 1 6.6247623697804485 -8.956447430149698 -4.539635923052728 0 0 0
1670 1 4.0928929752301215 -8.827130255497925 -5.930053232218011 0 0 0