LAMMPS data file via write_data, version 2 Aug 2023, timestep = 0, units = metal

1869 atoms
3 atom types

-14.20645209658152 14.20645209658152 xlo xhi
-14.458025133558824 14.458025133558824 ylo yhi
-13.392927389270557 13.392927389270557 zlo zhi

Masses

1 55.847
2 1.008
3 1.008

Atoms # atomic

1106 1 -9.45911493428406 -10.758960179136235 -10.027515071181906 0 0 0
1111 1 -10.28919223499778 -12.943809013073027 -9.42857592184757 0 0 0
1113 1 -11.895385263237067 -10.992826409947215 -10.783354043104916 0 0 0
1114 1 -12.913089007099535 -12.806122293754136 -12.612966086222398 0 0 0
1293 1 -12.621203341195807 -13.136187932694122 -10.115383547038485 0 1 0
1241 1 -9.80257150982645 -10.49959467462459 -12.45401938958207 0 0 0
1238 1 -10.507230881103444 -12.744936224536422 -11.889949996592975 0 0 0
1014 1 -11.660814329387541 -11.299772409977429 -8.228299705256202 0 0 0
1015 1 -13.191000062507175 -9.245950868075292 -9.483312178297954 0 0 0
1854 1 -13.830999443096953 -11.547916130244126 -8.91919627641453 1 0 0
1240 1 -12.220981846485435 -10.601716506672478 -13.263618079331035 0 0 0
1107 1 -10.785448686123923 -9.14602617030019 -8.835204992054152 0 0 0
76 1 -9.046860619731703 -14.385924202461023 -13.241754136864287 0 1 1
1112 1 -8.088898278673534 -12.528529239758422 -11.068677127062536 0 0 0
1239 1 -7.383960408014915 -10.112604615164141 -11.938516819019755 0 0 0
1237 1 -5.774891958792736 -12.152756972934181 -10.628134808244944 0 0 0
1232 1 -5.065916457353829 -9.894884780634003 -11.158046643915428 0 0 0
1360 1 -4.377217767873388 -13.865243536483291 -11.604612545559105 0 0 0
1104 1 -7.951174575738727 -12.742084511082712 -8.583802398555756 0 0 0
1231 1 -7.085931333884483 -10.65490003191008 -9.505628671928768 0 0 0
1353 1 -4.768419400193714 -10.235921756318632 -8.88117317321075 0 0 0
60 1 -3.639272964115378 -11.561972928804451 -12.376720733271512 0 0 1
1365 1 -6.857495763519054 -14.107425176358056 -12.521469785408458 0 0 0
1362 1 -5.99417297290309 -11.83591034068504 -13.016511384361724 0 0 0
1361 1 -3.4233633130458667 -11.918017682739453 -10.027791830536923 0 0 0
1359 1 -4.08732797650506 -14.150444621339636 -9.240075903547462 0 0 0
1220 1 -5.543393063953468 -12.431424102962948 -8.091459028313936 0 0 0
1230 1 -6.517189106158472 14.456667518358028 -9.881122197722643 0 -1 0
1484 1 -2.8388457529168765 -9.243780467333222 -12.948536413211201 0 0 0
1354 1 -2.46422331531814 -9.688066595968419 -10.564157188644296 0 0 0
1491 1 -1.9955065093223538 -13.558942236453124 -11.034044884007802 0 0 0
1481 1 -0.19540097146379587 -9.354051912600948 -10.08139205927815 0 0 0
1480 1 -1.0139530807894594 -11.634111421248477 -9.292756212631076 0 0 0
1487 1 0.3692782057562827 -13.38079508066552 -10.365935362994254 0 0 0
1616 1 0.06044807061356039 -13.048268199583443 -12.850655574286368 0 0 0
1482 1 -1.225572516024659 -11.309651003393242 -11.827447518692086 0 0 0
1612 1 1.2547119031075251 -11.095112410005282 -11.100801778553459 0 0 0
1350 1 -1.726991632212334 -13.82561391189669 -8.556150928410178 0 0 0
1479 1 1.3921924523745481 -11.351724085247202 -8.539152920914763 0 0 0
1351 1 -2.294985098885432 -9.94162296788964 -8.210494562837672 0 0 0
1468 1 2.082067295745178 -9.110029844833065 -9.303869123419188 0 0 0
1614 1 -0.4942426399530646 -9.025755816474769 -12.544985016629672 0 0 0
1348 1 0.6279958982175291 -13.685814188107628 -7.835954107364802 0 0 0
192 1 2.481664448677966 -12.768522402966882 -12.070358849423052 0 0 1
1613 1 0.8784691533484761 -10.725021448430294 13.30981813750196 0 0 -1
1615 1 2.763600272207677 -13.088167666167994 -9.71636330827916 0 0 0
1600 1 5.791798433699588 -10.46363020351398 -9.586771871304746 0 0 0
1610 1 3.445075914561917 -10.682932580938203 -10.402025048908257 0 0 0
1611 1 3.3013783478724275 -10.458469465805269 -12.82678175440571 0 0 0
1734 1 5.6423861782652 -10.133667766350001 -12.148915261867213 0 0 0
1732 1 7.251494438479506 -12.132097437908449 -10.656289493723753 0 0 0
1608 1 5.227574871257277 -12.800604868878944 -9.153953356974046 0 0 0
1598 1 7.491045521329665 -12.76949375393535 -8.222652508719465 0 0 0
1733 1 4.937222744838687 -12.48938546088939 -11.529500075394456 0 0 0
1726 1 7.955445372093619 -9.963906203451971 -11.457880334923082 0 0 0
1816 1 6.201923224089429 -14.20403275666652 -12.57121312308038 0 0 0
1466 1 3.781634351515658 -11.092235519874604 -7.957724259912817 0 0 0
1601 1 4.482481691911433 -8.761573601077933 -8.483134306445795 0 0 0
1817 1 6.888745887358214 -11.924992306949253 -13.271404347182697 0 0 0
1725 1 8.303962157807417 -10.477439465495138 -8.855208534810037 0 0 0
1803 1 12.14157029852939 -11.676564276825168 -9.659025347689898 0 0 0
1811 1 10.986316559532442 -13.763470845448493 -11.456514011652073 0 0 0
1812 1 9.551026735360663 -12.00935815917706 -10.087841758873575 0 0 0
1813 1 9.336991911320316 -11.627037942855644 -12.519899219931153 0 0 0
1805 1 10.371847872700735 -9.748758069042342 -10.787694376601412 0 0 0
1856 1 11.631260174573198 -11.495618722793514 -12.012228429046496 0 0 0
1713 1 10.717739825422226 -10.02745170736175 -8.451326124433317 0 0 0
1850 1 12.775777297782883 -9.512349233496112 -10.109735619331657 0 0 0
1810 1 11.326872756102963 -13.993518242517757 -8.84913875635557 0 0 0
1724 1 8.573669580637086 -13.996144433130565 -11.953485466869676 0 0 0
1116 1 13.49280098660323 -13.334820129260809 -10.820832462434847 -1 0 0
1851 1 12.481130391813336 -9.28306380508004 -12.735158468859623 0 0 0
1752 1 8.929961189349937 -14.259840456622808 -9.540290462004535 0 1 0
1858 1 13.075114304133708 -13.216029126551987 -13.192473043682808 0 0 0
1016 1 13.633450941754559 -13.817734914031183 -8.359365090712938 -1 0 0
1582 1 9.930541696689025 -12.408272613969462 -7.695472785309877 0 0 0
1857 1 10.141723176375544 -9.288149486204237 13.388302648126743 0 0 -1
1115 1 14.088837910366143 -11.210219649782283 -11.346319313885816 -1 0 0
1108 1 -13.61259201815531 -8.90621295820971 -11.912199545339417 0 0 0
1235 1 -11.166096017138216 -8.74921026136106 -11.353195725258363 0 0 0
1098 1 -10.208790637403444 -6.828354656047503 -9.649690136407914 0 0 0
1100 1 -11.70440339135412 -4.710305966604638 -10.931588129892306 0 0 0
1109 1 -12.554715741345467 -6.871427035559053 -10.277868210904874 0 0 0
1225 1 -9.387339455292004 -4.475168428666221 -10.286525872093263 0 0 0
1226 1 -10.592419283032944 -6.442534702313761 -12.049719313366456 0 0 0
1236 1 -12.992044666940417 -6.709915885269174 -12.782641167513825 0 0 0
1099 1 -11.516837545815772 -5.133707302597193 -8.438788655905972 0 0 0
1358 1 -9.704735458062956 -4.088309987016771 -12.687214954507445 0 0 0
1110 1 -13.809119506306214 -5.243539892665787 -9.025348573781379 0 0 0
1234 1 -9.171798350373919 -8.1712528146505 -13.182362144738816 0 0 0
1233 1 -8.734228230579472 -8.50344422857636 -10.780620319503038 0 0 0
1869 1 -14.092406320514186 -5.081733373588104 -11.513593613201245 1 0 0
4 1 -12.031992937514541 -4.413061677993019 -13.366346961071073 0 0 1
1085 1 -8.998180623625078 -4.740593160770599 -7.889457147449294 0 0 0
1096 1 -8.279777547346784 -8.826141276139051 -8.336378480413908 0 0 0
61 1 -4.2595426381378765 -7.698205150527156 -11.904222016515492 0 0 1
1222 1 -6.377364996370931 -8.148065209434101 -9.979723969219748 0 0 0
1363 1 -6.737584870727968 -7.907184776547239 -12.605526724637208 0 0 0
1224 1 -8.11534028581444 -6.20982080796437 -11.38108969412691 0 0 0
1209 1 -6.937701963503761 -4.204229507688893 -9.650220149204902 0 0 0
1355 1 -5.634403894798558 -5.941387110416867 -10.785799915037028 0 0 0
1356 1 -4.028239834244159 -7.972122392874265 -9.445200506787854 0 0 0
1357 1 -7.231554229260767 -3.908160686651488 -12.099111012686347 0 0 0
1223 1 -7.798082909298004 -6.525505744655817 -8.946994720970299 0 0 0
1342 1 -4.581196794002203 -4.024375750640026 -8.839794364996521 0 0 0
1207 1 -5.332199051820895 -6.331276422223901 -8.410317392269798 0 0 0
1485 1 -3.475516728051643 -5.2965897055194056 -12.514152188315565 0 0 0
1475 1 -4.764358435301588 -3.653245148939458 -11.276317203569013 0 0 0
52 1 -5.985275451993774 -5.620037574283517 -13.126996890071291 0 0 1
1341 1 -3.251390271439851 -5.737755305024928 -10.149435048328268 0 0 0
1604 1 1.9409034458846772 -8.783989786345554 -11.735654046788849 0 0 0
1483 1 -1.859339114332581 -7.34120037344989 -11.184684226136142 0 0 0
1472 1 -1.1232460785239429 -5.025383016973674 -11.839161644103095 0 0 0
1470 1 0.47394579996727515 -7.114399434199136 -10.564883874748999 0 0 0
1605 1 1.38728959448998 -4.811740122334571 -11.155496101347211 0 0 0
1471 1 -0.8702818575164475 -5.350393304532991 -9.41246399326849 0 0 0
1454 1 1.5213466301223093 -5.1401474227988775 -8.76804943404482 0 0 0
1339 1 -1.567619995812958 -7.770176275332796 -8.79968844643273 0 0 0
1606 1 0.1302422626165871 -6.631895721579777 -13.079224985921087 0 0 0
1323 1 -2.247376545844352 -3.7118245674646158 -8.268524305239342 0 0 0
1469 1 0.6688071981761308 -7.446224621062706 -8.074633366192394 0 0 0
1473 1 -2.5383810176253014 -3.3755103593959603 -10.620066489515594 0 0 0
1731 1 2.642228435335033 -6.3833848753469145 -12.345004551767857 0 0 0
1586 1 6.947350791046391 -8.718371960518645 -7.890428139322344 0 0 0
1602 1 4.311185646229577 -8.49299199760566 -11.067749586419094 0 0 0
1603 1 2.950225694169264 -6.852165726140175 -9.928574508807682 0 0 0
1727 1 6.750962383908961 -8.3361868496246 -10.389651694098927 0 0 0
1728 1 6.3673170047550425 -7.973799117133496 -12.795547833659308 0 0 0
1590 1 3.7672512854515023 -4.521398759162583 -10.536156026551017 0 0 0
1718 1 6.088978664856393 -4.342820322886471 -9.722574672892575 0 0 0
1719 1 5.840080340584143 -3.943301975395366 -12.138828748845238 0 0 0
1729 1 5.009144007958566 -6.2179454909104805 -11.689164824146824 0 0 0
1717 1 7.300203372751627 -6.021549959576973 -11.055637733903996 0 0 0
1588 1 5.288700538326351 -6.52141646221309 -9.40362009795064 0 0 0
1716 1 7.562246970965758 -6.346390531119674 -8.602762184975113 0 0 0
1721 1 3.3377286921507068 -4.128195981980912 -12.988834941083953 0 0 0
1589 1 3.945206335023771 -5.002281960167961 -8.073650446182876 0 0 0
1808 1 8.225763645111742 -3.8377641331920067 -11.599510194433945 0 0 0
1815 1 7.059295731336006 -5.689844864467959 13.322330088879433 0 0 -1
1701 1 8.45574255317718 -4.183378361848121 -9.082550745620964 0 0 0
1804 1 11.389834212320514 -7.818843379432222 -9.145693723560157 0 0 0
1715 1 8.994139409124008 -8.187343804006812 -9.709949815317806 0 0 0
1814 1 8.762235851313813 -7.741684870846387 -12.282479946478187 0 0 0
1794 1 12.137032494190011 -5.46720676884385 -9.715467831319827 0 0 0
1806 1 9.847861157678148 -5.7656496931871395 -10.389038943586932 0 0 0
1852 1 11.035703752115401 -7.479630321766539 -11.642351958731673 0 0 0
1795 1 10.768155896236001 -3.8206793443178064 -8.508832963307274 0 0 0
322 1 11.841212860741221 -5.213025445574958 -12.289631133491406 0 0 1
1807 1 9.3487147741912 -5.36576918329231 -12.798399585102523 0 0 0
1796 1 10.63084728749462 -3.563669979906255 -11.03905078941593 0 0 0
1855 1 13.417466459112548 -7.157048056803221 -10.875009398066432 0 0 0
1699 1 10.076181625647559 -6.172963544532408 -7.934539760368342 0 0 0
1781 1 13.166108024194711 -3.6857359907661866 -7.874509008499712 0 0 0
343 1 13.142226302051563 -7.086290620008485 -13.337345816612109 0 0 1
1792 1 13.750062107211837 -7.494202660120968 -8.51504841432169 0 0 0
1101 1 -13.076564797208452 -3.0791925197160843 -9.73672191157682 0 0 0
1102 1 -13.340929075657511 -2.632428290266626 -12.266446238217688 0 0 0
1087 1 -10.692040433987476 -2.82755527214222 -9.122155100262695 0 0 0
1227 1 -11.066361193152439 -2.441700864466421 -11.611390820334552 0 0 0
1089 1 -12.35246841113498 -0.766988148139804 -10.547099272410646 0 0 0
1212 1 -9.898796963282944 -0.4835336626955229 -9.715253396536268 0 0 0
1213 1 -10.282855040212587 -0.2532813177308988 -12.12856787256055 0 0 0
1214 1 -11.579624262620612 1.4899865605651303 -11.054261369573023 0 0 0
1074 1 -11.305172979103823 1.1766758739987893 -8.563572343617437 0 0 0
1090 1 -13.653796245985069 0.8713262820375043 -9.332260410062057 0 0 0
1847 1 -12.604344076853051 -0.4311571101359437 -12.896172127042544 1 0 0
1194 1 -9.156263445576986 1.73155053638623 -10.43632694258849 0 0 0
1843 1 -13.988962748689962 1.3324433856300981 -11.775482844828336 1 0 0
1215 1 -9.47512462358528 1.981709329918953 -12.886719673996051 0 0 0
1193 1 -8.89487986920259 1.291745072761124 -7.89855549828728 0 0 0
1088 1 -11.99535198468556 -1.097375777097385 -8.042159334618047 0 0 0
1211 1 -8.568755652019567 -2.1323034896319992 -11.037693006143027 0 0 0
1192 1 -8.11601642112025 -2.40539348557855 -8.393868045785265 0 0 0
1343 1 -6.215319000301253 -1.9254971221110626 -10.164475279365538 0 0 0
1325 1 -3.871904663054865 -1.704936395597315 -9.426764790787779 0 0 0
1344 1 -7.506476494998634 -0.16606024505010097 -9.084883399539132 0 0 0
1345 1 -6.54219245704672 -1.6058108442938703 -12.68229170833146 0 0 0
1346 1 -7.831710539114683 0.1152918167516237 -11.511529121402262 0 0 0
1327 1 -5.34848235037777 0.3635798613232524 -10.867287703549579 0 0 0
1326 1 -5.057311142797392 -0.011136098334846523 -8.297567014900302 0 0 0
1596 1 -4.121259834336785 -1.3677744749435696 -11.808431924436455 0 0 0
114 1 -3.4020465141382488 0.9622606274574093 -12.454972406635338 0 0 1
1328 1 -6.713738330218835 2.054435368254147 -9.716828800180364 0 0 0
1476 1 -5.724229818626499 0.6447912627206502 -13.291161851578387 0 0 0
1459 1 -3.078401425748604 0.6799180684376651 -10.135020326568494 0 0 0
1190 1 -5.965494160400024 -2.3238548379688204 -7.69214609431081 0 0 0
1329 1 -7.0741097028101905 2.320805459813254 -12.247068415207053 0 0 0
1456 1 -0.045425221281671924 -3.2306244334462466 -9.937664326212406 0 0 0
1474 1 -2.6872617841069406 -3.0370300884598613 -13.058829416096325 0 0 0
1607 1 -0.31819178193926767 -2.7409195952642733 -12.40821879623567 0 0 0
1592 1 1.9699820382346207 -2.4928753722421337 -11.793336273100573 0 0 0
1458 1 -1.7888786273433173 -1.1368822715718174 -11.288479779865417 0 0 0
1593 1 0.6183150189640632 -0.9125731792122522 -10.670936835685245 0 0 0
1438 1 -0.6482644844874361 0.8449016942572829 -9.438042118237789 0 0 0
1595 1 -0.982670198783099 1.2009889553982056 -12.033005031461059 0 0 0
1576 1 1.4006134351952984 1.3875984263461891 -11.347138563769356 0 0 0
1457 1 -1.4149264026090993 -1.4074528781450422 -8.777810790370289 0 0 0
1575 1 1.6680299759609003 1.0887125763635854 -8.844558256907273 0 0 0
1436 1 1.0224206343107074 -1.2726126642259796 -8.166255645711674 0 0 0
1594 1 0.4260358291277875 -0.5586613910437102 -13.182527265871938 0 0 0
1591 1 2.3385618672257262 -2.9370224422781455 -9.410781545874825 0 0 0
1722 1 2.7134165883905776 -0.38176463968958174 -12.389597187507622 0 0 0
1572 1 4.60851188914768 -2.7162814452023945 -8.613859304727605 0 0 0
1574 1 2.9829224424017706 -0.6672361037492518 -9.958614695474765 0 0 0
1703 1 6.785402768895237 -2.140963649572589 -10.389790580460184 0 0 0
1705 1 5.11099564328625 -0.027918130221719295 -11.733900072131656 0 0 0
1720 1 4.481034049293962 -2.247201597137531 -11.11071865580621 0 0 0
1706 1 3.660851158045725 1.664600618183492 -10.626592122439412 0 0 0
1799 1 7.590928410004464 0.11897405519151505 -11.214096734152609 0 0 0
1704 1 5.4119415816477865 -0.400581118520579 -9.257872580516853 0 0 0
1809 1 6.710427128720626 -1.7124461625204042 -12.967216867687513 0 0 0
1553 1 4.0117828232045145 1.3631103709750167 -8.29308128180733 0 0 0
1685 1 7.91974675843271 -0.15026135839154442 -8.694867817634277 0 0 0
1707 1 3.51497592534057 1.9574548542617514 -13.12788671021645 0 0 0
1687 1 6.223195930930261 1.7858524702419558 -9.890147676657952 0 0 0
1702 1 7.063667575898938 -2.2778026186757074 -7.960437357243348 0 0 0
1801 1 5.9490081205058924 2.2088752164071472 -12.40146235763769 0 0 0
1846 1 12.993311623960102 -3.273429772496204 -10.407961635800126 0 0 0
1853 1 12.680676289063962 -2.944714642745426 -12.793863950835222 0 0 0
1797 1 9.205505788688582 -1.9001472483760313 -9.789836734860565 0 0 0
1798 1 8.98017935619353 -1.5757785081274935 -12.268679070744685 0 0 0
1848 1 11.278560935363524 -1.2877594230057827 -11.823851320896985 0 0 0
1868 1 12.048514705239656 0.9559567787322898 -12.420422303431002 0 0 0
1785 1 9.889257354859941 0.42087219284247723 -10.441352967743343 0 0 0
1842 1 12.24079642592769 0.6727725321418276 -9.959914646493534 0 0 0
1783 1 11.589599214291875 -1.622160603423282 -9.3351046029875 0 0 0
284 1 9.679478257303545 0.7504638098086076 -13.039225996550513 0 0 1
1786 1 8.515699474424133 2.144156334057328 -9.387396277442804 0 0 0
1784 1 10.31530487719994 0.08437598136432989 -7.8907054282663225 0 0 0
1841 1 13.742322366463755 -1.0280669754548502 -11.131952365425057 0 0 0
1771 1 10.86442686374914 2.3546212021936554 -8.649027587114464 0 0 0
1840 1 13.934142892112833 -1.409503218337628 -8.641650088050085 0 0 0
1076 1 -12.966884396347492 3.151443127353538 -9.943505490591527 0 0 0
1176 1 -9.838207976907876 5.8995851560326855 -9.867202462990239 0 0 0
1196 1 -10.828355464314859 3.796932313692235 -11.604440027305872 0 0 0
1197 1 -12.23989006977696 5.499122426404963 -10.5734286460438 0 0 0
1331 1 -10.110261123015398 6.138955359775959 -12.408809779283 0 0 0
1195 1 -10.505951054863495 3.4809740775854294 -9.2302157971192 0 0 0
1062 1 -13.462640204844936 7.1253056224912825 -9.153793979402423 0 0 0
1867 1 -13.212051322604701 3.587746496191027 -12.35159181585872 1 0 0
1198 1 -12.400087109870244 5.771735129139817 -12.98760119211439 0 0 0
1177 1 -11.13369523785207 7.507532546452971 -8.678676199937902 0 0 0
1178 1 -13.8632247432398 7.519807970393629 -11.70332521289431 0 0 0
1156 1 -8.70413313648351 7.769722214809523 -7.976342140068895 0 0 0
1060 1 -11.91539678971153 5.250858794191402 -8.01882218517639 0 0 0
1179 1 -11.558570857979182 7.676018875990511 -11.131864027516263 0 0 0
1305 1 -4.377619712711256 2.3121166807693143 -9.013943746385106 0 0 0
1330 1 -8.465280793144933 4.032009666223175 -10.995214698189265 0 0 0
1461 1 -4.797363592940364 2.7352513064198796 -11.489153553872182 0 0 0
1174 1 -8.302007103715084 3.8363434400464307 -8.577605719166288 0 0 0
1307 1 -6.047130363014949 4.397343322472331 -10.378886913550678 0 0 0
1309 1 -7.705835299682409 6.401152509133517 -11.73686484614763 0 0 0
1441 1 -3.596594715777446 4.528582974308009 -9.874954556539294 0 0 0
1442 1 -3.9395896505259103 5.026846341542527 -12.232927772554929 0 0 0
1443 1 -5.304387646151973 6.631307834474779 -10.995904142153318 0 0 0
1462 1 -6.372681278885133 4.603259985951357 -12.799253246243497 0 0 0
1286 1 -4.983660448891721 6.2194667469916 -8.580772630483365 0 0 0
1308 1 -7.331922666155932 6.116288622618338 -9.194961303481335 0 0 0
1580 1 -3.1094289332534686 7.210766055795268 -12.640021415303044 0 0 0
1306 1 -5.799580973953205 3.99813921455398 -7.938862446958084 0 0 0
1 1 -8.658922119719087 4.372654855955155 13.194523487200765 0 0 0
1420 1 -2.8203899099189176 6.812120528732699 -10.265552619252926 0 0 0
1439 1 -2.042289401170585 2.471363336677296 -8.437450292736642 0 0 0
1440 1 -2.261638078169531 2.852973303179379 -10.908681803761134 0 0 0
1558 1 -0.4946375416756279 7.075013431676556 -9.50215775065667 0 0 0
1579 1 -1.5094749496061137 5.20774129393353 -11.55000767896882 0 0 0
1557 1 0.7763618999414952 5.238990500245588 -10.845289035940864 0 0 0
1577 1 -0.0016113769472561046 3.021590392801329 -10.048048156639082 0 0 0
1578 1 -0.10875198904413352 3.471252522901427 -12.6988983089886 0 0 0
1418 1 -1.2098096145677157 4.792358941647478 -9.00466987863333 0 0 0
1556 1 1.0066092507881184 5.061796643857711 -8.403436214471668 0 0 0
1537 1 1.840390969824151 7.3656190511902935 -8.83799268449954 0 0 0
1559 1 -0.8264241704877389 7.289989995748588 -12.096045626328191 0 0 0
1708 1 2.149424163539356 3.678133998777639 -11.903702028820284 0 0 0
1692 1 1.4585315753818087 7.551172520328965 -11.433077122071047 0 0 0
1709 1 0.4786655177393513 5.58416593816882 -13.295163136991945 0 0 0
1555 1 2.370880049016785 3.453933967221218 -9.48138235100576 0 0 0
113 1 -2.517616554356655 3.231398096868819 -13.164261343993108 0 0 1
1691 1 2.8676928325120183 5.924790316266275 -12.467848210521469 0 0 0
1670 1 5.5248510700226365 5.8785769728700075 -9.434029067991217 0 0 0
1689 1 4.544084717503056 3.8755246412755824 -11.331221652753559 0 0 0
1690 1 3.1020664339244615 5.655501661033597 -10.012747494120854 0 0 0
1790 1 5.332643745625683 6.068517699349922 -11.90521378481301 0 0 0
1788 1 6.87311495616825 4.181123644429043 -10.553841434081288 0 0 0
1688 1 4.763281684876263 3.5740449092833835 -8.94555854547907 0 0 0
1668 1 7.114104579111528 3.7988765805933085 -8.215575201238426 0 0 0
1775 1 7.763458618269988 6.334634004862959 -11.297699730058037 0 0 0
1789 1 6.712485291618998 4.450490104741597 -12.994414837616034 0 0 0
1671 1 4.206205726304551 7.436683530112941 -8.27629500232602 0 0 0
1774 1 7.933948817134711 6.1185079747643165 -8.865633344788481 0 0 0
1672 1 3.9890457387787226 7.7246687901218145 -10.657061377859616 0 0 0
1787 1 8.39594196528793 2.511938983079091 -11.758157542052338 0 0 0
1844 1 10.746019033721497 2.7616940051055074 -11.11661803812573 0 0 0
1834 1 13.09611233746235 2.9198877848241054 -10.635314439303606 0 0 0
1773 1 9.310899396149738 4.439187857022709 -9.902919652989794 0 0 0
1836 1 11.412802625568807 4.975641928140746 -11.784106669018675 0 0 0
1845 1 9.06062271325136 4.650725624493273 -12.473315245590717 0 0 0
1835 1 10.26282323060173 6.441958898311029 -8.22004058707117 0 0 0
1828 1 12.506682226835805 6.806646788026729 -9.987210338260127 0 0 0
1849 1 12.792733387579888 3.300613963467619 -13.070463337496518 0 0 0
1829 1 12.16199988182842 7.27745106363648 -12.355415998211225 0 0 0
1830 1 9.932129278719666 6.600779491624355 -10.637631394403824 0 0 0
1838 1 9.761915999325568 7.0246670801778635 -12.911705682116109 0 0 0
1758 1 11.75764530894899 4.614740825399888 -9.408859876863149 0 0 0
1075 1 13.33015508640794 2.588857910100554 -8.241113810734705 -1 0 0
1216 1 13.94785675411749 5.234405861426474 -11.196028444613926 -1 0 0
1865 1 14.138486188197758 4.939850992639155 -8.856324299898679 0 0 0
1310 1 -8.992908379020319 8.078686230192439 -10.580216175814684 0 0 0
1311 1 -9.330033373480088 8.384801525468063 -12.933223956603815 0 0 0
1158 1 -10.46159171254903 9.765409075392103 -9.279811245210844 0 0 0
1160 1 -12.062115111937448 11.772264498680666 -10.581903934485002 0 0 0
1291 1 -9.641365552796728 12.015945122081593 -9.904744661664992 0 0 0
1312 1 -10.679724394357876 10.101891153628785 -11.74920241866916 0 0 0
20 1 -13.10209464889089 9.784159359095302 -12.361026494745909 0 0 1
17 1 -9.754440283113677 12.315001680393596 -12.398671004734185 0 0 1
1047 1 -12.875517035216806 9.551603980842238 -9.839314482637167 0 0 0
1159 1 -11.841762668960621 11.46806293106092 -8.313722616519888 0 0 0
1180 1 -12.28549376964866 12.005842269390335 -12.911629605218469 0 0 0
1017 1 -13.441903416510256 13.336127288972566 -9.5099837085393 0 -1 0
1161 1 14.167202398929577 11.20844962867277 -8.663514387662952 -1 0 0
1290 1 -8.26798388538829 10.346061137163304 -11.20160084883715 0 0 0
1288 1 -6.663689099029383 8.374221422060977 -9.954533354947774 0 0 0
1444 1 -6.958545313679147 8.64333650436867 -12.336844602731052 0 0 0
1421 1 -4.26321327126267 8.548549888898052 -9.143219463394757 0 0 0
1422 1 -4.511449933239538 8.794313040061454 -11.685754949930447 0 0 0
1272 1 -7.196923256603893 12.296464743886418 -9.198549441571284 0 0 0
1423 1 -5.851912141270285 10.684338528487764 -10.443211879828466 0 0 0
1424 1 -6.059375390962403 10.938029956662113 -12.834068764436221 0 0 0
1425 1 -7.47917381695563 12.638978618498921 -11.749966116433272 0 0 0
1561 1 -3.6711861804132084 11.236597166012341 -12.418124001952082 0 0 0
1404 1 -3.423576349239765 10.80399170626287 -9.92966116692254 0 0 0
1289 1 -8.035810661371086 10.035259494828729 -8.60384549179756 0 0 0
1405 1 -4.860738091837074 12.47652178255031 -8.658587014845073 0 0 0
1406 1 -5.196625148250321 12.894207786607115 -11.180274740577538 0 0 0
1270 1 -5.712048155586155 10.206091142542586 -8.00125243057347 0 0 0
1489 1 -2.8850028923139117 13.541653610579655 -12.824355837915483 0 -1 0
1542 1 -2.7706622404212844 12.960989411961268 -10.393231024277 0 0 0
1540 1 -1.0436152587262733 10.967773831549913 -9.175287175374635 0 0 0
1541 1 -1.3249595505007417 11.435513896429264 -11.559733799077987 0 0 0
1560 1 -2.205991879467435 9.142116093079718 -11.068469451544882 0 0 0
1539 1 0.14977784467347277 9.271232379495125 -10.259167956530629 0 0 0
1675 1 1.015196514437772 11.580249053099418 -10.966715712957592 0 0 0
1693 1 -0.21222295162392868 9.68261975863033 -12.715671397622229 0 0 0
1402 1 -1.8075187446639358 8.793096602172394 -8.475138978271882 0 0 0
1522 1 1.335071461099215 11.175283582705756 -8.532050310104625 0 0 0
1390 1 -2.4724764612699985 12.735296001970166 -8.037221703278304 0 0 0
1674 1 2.2115789347706762 9.791050679505311 -12.137000075518095 0 0 0
1524 1 -0.28441208209785707 13.258418453347826 -9.703324676664948 0 0 0
218 1 0.6221598502604699 11.870633824178302 -13.324023877269314 0 0 1
1673 1 2.5320557488223283 9.506279942045545 -9.69445397217235 0 0 0
1776 1 6.356383376025752 7.955345634575494 -10.144412930227793 0 0 0
1777 1 6.112496921969514 8.338316970204815 -12.62799199878656 0 0 0
1656 1 3.3871573201334986 11.658448725715225 -10.306460057463251 0 0 0
1765 1 7.201242056675428 10.336775766452103 -10.69578468912992 0 0 0
1778 1 4.700600053565319 9.917779642341749 -11.383438054906588 0 0 0
1779 1 3.1147873197559566 12.079316886238026 -12.710365775345348 0 0 0
1654 1 5.017328181432587 9.660479387724994 -8.836220744354026 0 0 0
1763 1 7.442116963551081 10.116061365085589 -8.223857133734096 0 0 0
1754 1 5.7359531093418905 12.038788567693583 -9.60533047094153 0 0 0
1767 1 5.366492021326808 12.223822899460153 -12.098754279626782 0 0 0
414 1 7.740506522985333 12.690112077794051 -11.374536718394584 0 0 1
250 1 3.7018870924066913 8.170769465756187 -13.15276489071255 0 0 1
1766 1 6.870984606339251 10.71865042201706 -13.260287256554129 0 0 0
395 1 8.202504277408694 12.461879940679818 -8.869002286871957 0 0 1
1839 1 8.429566529821683 8.75136589720901 -11.828691340431394 0 0 0
1837 1 10.678858561219597 8.919324557921787 -11.279245785803798 0 0 0
1764 1 9.47540604175047 10.740728095054898 -10.153576390476601 0 0 0
1762 1 11.249970194741723 8.69525666606216 -8.89614840256854 0 0 0
1823 1 11.842770615972514 11.062393617750821 -9.574019978957725 0 0 0
1864 1 11.558067180232085 11.351686019301344 -11.99632114578622 0 0 0
1824 1 10.448517974024787 12.510227387118665 -8.15444712207519 0 0 0
1825 1 10.283497566255017 12.954611383479449 -10.697790412687624 0 0 0
436 1 9.227014376090763 10.9627853041709 -12.509360596519329 0 0 1
1862 1 13.095600349372509 9.219461794138198 -10.64770660012648 0 0 0
1761 1 8.712324630755154 8.420963817500297 -9.560126365203779 0 0 0
1863 1 12.963774437798422 9.504678960936925 -13.0346081513192 0 0 0
1821 1 13.43336485249605 8.8979218150456 -8.238564949235396 0 0 0
1860 1 12.582904899846133 13.32432686269588 -10.06542173963709 0 0 0
394 1 9.825550865960489 13.197303569408195 -13.134725877680589 0 0 1
1861 1 12.345192291865517 13.483954733173025 -12.58122125484927 0 0 0
1162 1 14.027136159364792 11.560634689838547 -11.217734585206346 -1 0 0
1144 1 -10.884681868164893 13.667411075272504 -8.763354264833136 0 0 0
14 1 -13.653186366089733 13.79403908118109 -11.930019808840004 0 -1 1
1274 1 -8.87395604514099 14.249980922927918 -10.622094482762197 0 0 0
1292 1 -11.246523585153618 14.009941177493353 -11.264877306306085 0 0 0
1273 1 -8.629650286063075 14.0167567067009 -8.058615776500886 0 0 0
1657 1 2.103122396523803 13.479163833073958 -9.015742675349255 0 0 0
1488 1 -0.5816703647109094 13.655716114635496 -12.234734467556693 0 -1 0
1658 1 1.7327306599739014 13.874238485128338 -11.547131274011635 0 0 0
1832 1 6.525146098962148 14.377024143176847 -10.139345866732537 0 0 0
1609 1 4.063593934884041 14.027625215575565 -10.835872867439175 0 -1 0
1642 1 4.5101539270787665 13.788511623843803 -8.506044604803051 0 0 0
1753 1 6.762048715302212 13.94641324807164 -7.682168778753392 0 0 0
1736 1 3.8739771909160456 -14.404850791166293 -13.263502098001167 0 0 0
1105 1 -9.226338591460571 -10.949834476727034 -7.62013380371924 0 0 0
1013 1 -12.376023045748274 -13.547543413078033 -7.699168969438294 0 0 0
954 1 -13.05987747784032 -9.508664358305317 -7.070300025461527 0 0 0
956 1 -12.148310632032848 -13.883896416714908 -5.219709335256773 0 0 0
1005 1 -12.72477333683102 -9.906719824466592 -4.606806607485327 0 0 0
1006 1 -10.65227803667986 -9.399975984842406 -6.458502094812721 0 0 0
1010 1 -9.740641266379729 -13.671347785726923 -4.446954734254341 0 0 0
1011 1 -10.032665850848467 -13.205526707161173 -6.9962625146367525 0 0 0
1012 1 -11.378156984454591 -11.55039845288881 -5.733239099284307 0 0 0
1562 1 -13.435596621079997 -12.178159751856569 -3.961022140458015 1 0 0
1695 1 -13.771348989200419 -11.843716677529361 -6.4102071944132 1 0 0
952 1 -11.038563973772247 -11.967091017742321 -3.323347953270062 0 0 0
993 1 -10.336700315413054 -9.850572797069937 -4.079438450099376 0 0 0
1004 1 -9.023511845024883 -11.441871223734477 -5.22165813309763 0 0 0
1024 1 -11.908268506404456 -14.353526275492134 -2.6507723152853213 0 1 0
945 1 -12.385475911097041 -10.217299326656317 -2.195832457523238 0 0 0
1003 1 -8.572564998686076 -11.802749069003262 -2.688055390227859 0 0 0
1103 1 -7.670798462401224 -13.024620880540148 -6.146088757761841 0 0 0
1092 1 -5.217507299497344 -12.90740122448049 -5.63006198963042 0 0 0
1093 1 -6.605060937613777 -11.176637674704187 -4.557632731999805 0 0 0
1094 1 -6.846953135932969 -10.744918514374431 -6.831632696039709 0 0 0
1219 1 -4.539327434079798 -10.511532671476264 -6.3391693230732775 0 0 0
994 1 -7.936136732359608 -9.457743067885364 -3.356787643648369 0 0 0
1002 1 -7.328727833554315 -13.57248016555404 -3.8667277338271706 0 0 0
1079 1 -4.135830851249894 -10.842619294496586 -3.870010698979204 0 0 0
1091 1 -4.862674334441493 -13.227043797450627 -3.3089681078543656 0 0 0
1080 1 -5.432948644166197 -9.223677577860538 -2.6777625015964954 0 0 0
1095 1 -8.342907328282898 -9.005085344321833 -5.845461326813381 0 0 0
1352 1 -3.2020442827166065 -12.203872714445563 -7.470961378194334 0 0 0