LAMMPS data file via write_data, version 2 Aug 2023, timestep = 0, units = metal

1865 atoms
3 atom types

-14.141340684360921 14.141340684360921 xlo xhi
-13.8275664868613 13.8275664868613 ylo yhi
-14.097254543056373 14.097254543056373 zlo zhi

Masses

1 55.847
2 1.008
3 1.008

Atoms # atomic

694 1 -11.855924952019214 -12.829828804377854 -11.829762473045424 0 1 0
206 1 -12.608328766706881 -11.267105902390755 -13.666084441199729 0 0 0
687 1 -9.959387513049535 -11.125175476700399 -12.541859079859895 0 1 0
204 1 -7.991164253156073 -12.370285358289573 -13.42531105237169 0 0 0
180 1 -6.291810012538736 -10.680726977261251 -13.903244419399396 0 0 0
182 1 -7.435894841134975 -10.931177300248304 -11.174219028188215 0 0 0
12 1 -2.9787186819020572 -11.54211987255213 -0.06957565743286587 0 0 0
1479 1 -14.010660635184436 -13.458517416057163 -6.7724626584698 1 1 0
144 1 -5.457877885781661 -12.142708156818323 -12.220008624028907 0 0 0
143 1 -3.321187758557098 -13.339367939634672 -13.035508371001473 0 0 0
107 1 -0.678103788410656 -13.226153252786805 -11.744439625794273 0 0 0
106 1 -1.5677775265038303 -11.582744785538042 -13.544091114314394 0 0 0
209 1 -12.80767966579354 -8.318243337969806 -13.361661594722557 0 0 0
214 1 -12.047555561411329 -9.818818407032905 -11.588602168440731 0 0 0
220 1 -12.410211552215033 -7.109618119995763 -11.201890925160441 0 0 0
1049 1 -10.27850689200354 -8.231257993108832 -12.128937116716667 1 0 0
181 1 -8.37365876690896 -9.358368568560431 -12.91875518212173 0 0 0
186 1 -6.594249204185115 -7.701489907323433 -13.538440804470993 0 0 0
149 1 -5.775972469032132 -9.319471175130051 -11.812917475598386 0 0 0
148 1 -3.5600809986982522 -10.480916336865754 -12.676845181238228 0 0 0
154 1 -4.049264316885941 -7.653225834560698 -12.273421611692976 0 0 0
113 1 -0.9256110331317586 -10.237069820733709 -11.476156806373286 0 0 0
112 1 -1.890026433927133 -8.709167611802734 -13.17873168420097 0 0 0
119 1 -0.167900077583937 -6.983506065100263 -13.77955627737825 0 0 0
213 1 -13.196557438959054 -5.589736419159703 -12.922255680985419 0 0 0
218 1 -11.566029573505041 -3.8950430402935687 -13.555946438996166 0 0 0
208 1 -11.20436666531268 -6.6260914431095745 -13.977487016098733 0 0 0
193 1 -10.671156205080578 -5.469457741899339 -11.841901932585621 0 0 0
198 1 -9.040177753008571 -3.7875656457969242 -12.368229984139194 0 0 0
187 1 -8.590544553384216 -6.64804710339426 -12.746675852676296 0 0 0
192 1 -6.886393500694151 -4.849134116747875 -13.204412474680375 0 0 0
156 1 -5.963046309380587 -6.371895049000686 -11.5183815785724 0 0 0
162 1 -4.234194428830682 -4.671730873721103 -11.95666250301906 0 0 0
155 1 -2.1913066475040406 -5.903190980204409 -12.869473036453737 0 0 0
127 1 -0.5251487557115713 -4.14022673235279 -13.438653074827291 0 0 0
225 1 -13.602060448790857 -2.7465833993644146 -12.696153928373732 0 0 0
629 1 -11.918760121826425 -1.1121909206811011 -13.283686004653518 0 0 0
18 1 -2.895231064061246 -2.766528354773646 -1.5170155886713275 0 0 0
199 1 -9.259886508940028 -0.934444184581734 -12.042602110301498 0 0 0
226 1 -11.025864926733869 -2.613087569840607 -11.584935137693273 0 0 0
285 1 -7.35060537612095 -2.1671773879994767 -12.895635407239128 0 0 1
168 1 -5.554349795088257 -0.3464144326844778 -13.365933316261547 0 0 0
1351 1 -5.210019971648231 -3.1623647030652524 -13.717440935770707 0 0 1
169 1 -4.616160516077501 -1.9019584904054998 -11.616996420415475 0 0 0
546 1 -2.9019013106482454 -0.18175281909563168 -12.286647837235996 0 0 0
128 1 -2.6582716221446496 -2.990220284855271 -12.573460618023871 0 0 0
1005 1 -1.0341070101826304 -1.361101526251316 -13.133897218151104 0 0 0
76 1 -14.033577490785097 -6.6003126885761985 -4.012934394874984 0 0 0
210 1 -13.76697842680006 -11.63593018558254 -11.283892140870707 0 0 0
207 1 -12.961004373390475 -13.234187982324666 -9.405122797725966 0 0 0
212 1 -13.195942727930692 -10.453766012593578 -9.131916516537764 0 0 0
211 1 -11.049275682155073 -11.531172980493412 -9.977834524668003 0 0 0
178 1 -9.044221116086938 -12.592371866589144 -10.881769032052356 0 0 0
184 1 -8.55164867238228 -11.36959576034137 -8.741088411410448 0 0 0
146 1 -6.599819825655846 -12.50563939501852 -9.488845709201097 0 0 0
582 1 -4.549646769905616 -13.672618722499784 -10.512778549459581 0 1 0
150 1 -4.751428823584707 -10.872374119516088 -10.086261579669245 0 0 0
145 1 -3.9352564542003297 -12.37813767647413 -8.339747602262115 0 0 0
83 1 -0.17217129094533412 -11.817316943186366 -9.786124291430257 0 0 0
108 1 -2.761227570271018 -11.944888835073577 -10.994867620203973 0 0 0
115 1 -2.2085136780806867 -10.682766398308825 -8.91513890532136 0 0 0
109 1 -1.819130022753363 -13.50852579518123 -9.302479644830305 0 0 0
217 1 -13.54318561968618 -7.594813627036709 -8.807485726421454 0 0 0
216 1 -11.562626852690618 -8.648513047252415 -9.6105163849118 0 0 0
32 1 -7.538979358371392 -1.807002711723074 -1.843213689897972 0 0 0
183 1 -9.345899835351174 -9.668449357527926 -10.37340951752061 0 0 0
189 1 -9.657288663664605 -6.955109028870022 -10.051811492422727 0 0 0
151 1 -6.732665799225397 -9.74778942823 -9.349996232657645 0 0 0
188 1 -7.6746259145377795 -8.110289514108723 -10.938688260997878 0 0 0
157 1 -5.185709936390003 -8.003439016823837 -9.79160736971492 0 0 0
114 1 -3.0597729789611563 -9.138735037322235 -10.60711964374024 0 0 0
121 1 -1.241307779701092 -7.58312454779441 -11.189812113909113 0 0 0
87 1 -0.4430779728559351 -8.95079426186144 -9.447201397382976 0 0 0
123 1 -2.611441698422798 -7.848902729817545 -8.621342750080737 0 0 0
222 1 -11.781784616270766 -5.815211415404404 -9.293572620671712 0 0 0
221 1 -12.67251139120849 -4.226993470313195 -11.015433808517376 0 0 0
223 1 -13.84751565687978 -4.644593142903604 -8.375137900687118 0 0 0
195 1 -10.098539066800054 -4.153304597585947 -9.78904732485794 0 0 0
158 1 -7.091518880350731 -6.764993182260903 -8.925404883848714 0 0 0
163 1 -6.372634766011955 -3.652655420988422 -11.168722852799908 0 0 0
194 1 -8.022211880955282 -5.450570556783303 -10.661611778156363 0 0 0
165 1 -7.415327948963039 -4.075618443296085 -8.752001274986325 0 0 0
164 1 -5.313343416475817 -5.137319732513177 -9.394217795211773 0 0 0
122 1 -3.493401228849393 -6.185571103074158 -10.24871109444065 0 0 0
130 1 -3.7106321265847413 -3.384259681362755 -9.988562852951297 0 0 0
91 1 -0.7363410246743705 -6.11551119730124 -9.17402843036901 0 0 0
129 1 -1.6424755211121198 -4.497733310868858 -10.762089987325696 0 0 0
228 1 -12.088370546319776 -3.0767649948728266 -9.003172378412032 0 0 0
227 1 -13.063226061609578 -1.4400274216032454 -10.699929676731678 0 0 0
79 1 -12.437010459672518 -0.13922185393995434 -8.663115705146016 0 0 0
201 1 -10.418977209864893 -1.2598667468451268 -9.550676690396719 0 0 0
200 1 -8.406154445544521 -2.4850203317756403 -10.323543576666996 0 0 0
170 1 -6.689332497549378 -0.8201864784642172 -10.736788515275432 0 0 0
171 1 -5.719578147144123 -2.273460430877728 -9.194427533890025 0 0 0
138 1 -3.9307530936609947 -0.5420760801381057 -9.77824084320439 0 0 0
2 1 -5.714740664104266 -0.11585531549452632 -2.327665908850717 0 0 0
95 1 -1.1186153518599369 -3.3295526555669976 -8.64672011310292 0 0 0
137 1 -1.9913673880414073 -1.7356128894856848 -10.446320566443463 0 0 0
71 1 -12.230402765312704 -11.856614045511167 -7.303668568050598 0 0 0
949 1 -0.12055555028275933 -9.790806851801634 -3.177045611692394 0 0 0
179 1 -10.225957251686932 -12.994679794521307 -8.18548776375475 0 0 0
52 1 -9.684104378534707 -11.542267653083966 -6.088017420177593 0 0 0
147 1 -7.726558080680808 -12.91979679509456 -6.974060121513797 0 0 0
152 1 -6.030651782289967 -11.181860715033487 -7.549354423134077 0 0 0
110 1 -3.245115773381018 -11.054602849360755 -6.348523351005098 0 0 0
111 1 -4.996881344692778 -12.777739879373078 -5.807276604920528 0 0 0
84 1 -1.3744728186635236 -12.25490806370507 -7.273430826588505 0 0 0
73 1 -12.56926657266056 -9.008425109322129 -7.057274976392218 0 0 0
190 1 -8.832676143812982 -8.530400113643974 -8.32315357913092 0 0 0
185 1 -10.60264715056136 -10.131415032422451 -7.818049353413999 0 0 0
191 1 -10.864011877116418 -7.23100699708286 -7.584126451262159 0 0 0
57 1 -10.043412048341388 -8.883367456410078 -5.798213937843116 0 0 0
160 1 -8.264537639109005 -7.164544890577698 -6.408250686091709 0 0 0
153 1 -7.962465095387881 -10.039424161250293 -6.732180004421035 0 0 0
159 1 -6.249732621145905 -8.331933029981057 -7.386268036139237 0 0 0
116 1 -4.259116383936421 -9.514363043226563 -7.965830530838846 0 0 0
125 1 -3.697049768802124 -8.149339469960921 -5.958352149384401 0 0 0
88 1 -1.5997144532664969 -9.431694495027736 -6.89257679174901 0 0 0
75 1 -12.92058502120795 -6.111895315934672 -6.83625121167794 0 0 0
197 1 -11.250024105245645 -4.478463616570881 -7.139748738418994 0 0 0
196 1 -9.228322346510934 -5.600980722871842 -8.024149748250935 0 0 0
167 1 -8.496372962135062 -4.37441641904749 -6.116253406957761 0 0 0
166 1 -6.489296126320508 -5.534688030315056 -6.879133219504661 0 0 0
124 1 -4.5154581605729796 -6.645432376042388 -7.748612173801392 0 0 0
132 1 -4.810243807056995 -3.8514124189773664 -7.424218289813183 0 0 0
133 1 -3.9846961156670755 -5.4328086411684 -5.532794615789614 0 0 0
131 1 -2.780032948890149 -5.040720254714946 -8.188893451616782 0 0 0
96 1 -0.3028929611107056 -4.92804823453506 -6.996144691916442 0 0 0
92 1 -1.983760521836686 -6.592413374309822 -6.660121535757995 0 0 0
97 1 -2.4551727588870715 -3.608556685014454 -6.245676976913402 0 0 0
77 1 -13.286355086752105 -3.2707858083137307 -6.478653751298259 0 0 0
7 1 -13.476666814997376 -0.4698058424828453 -6.18722019752004 0 0 0
203 1 -11.476794125133184 -1.683613485962482 -6.863757708539517 0 0 0
931 1 -0.2761273724279416 -2.756230706451099 -0.4550942694849489 0 0 0
202 1 -9.468851943885618 -2.7953576577946535 -7.936570329929587 0 0 0
174 1 -8.813174577101833 -1.5750805005049635 -5.719826615457222 0 0 0
172 1 -7.734861590736549 -1.2359497250977771 -8.15889096629628 0 0 0
173 1 -6.7838636083962705 -2.7925022662820673 -6.609651485361963 0 0 0
140 1 -5.243290561776448 -1.1236852069581413 -7.032339879759281 0 0 0
139 1 -3.202830109934311 -2.1894755289333947 -7.970875421679248 0 0 0
101 1 -1.5467935092517386 -0.5011888962855906 -8.385245539282916 0 0 0
102 1 -0.5769048727962431 -1.992858087441979 -6.7484968830301915 0 0 0
103 1 -2.4821734123151113 -0.9166594660801604 -5.825699590267751 0 0 0
690 1 -11.45124019433952 -13.367976868204714 -5.545418563626411 0 1 0
50 1 -13.318720584708906 -12.305126239459886 -4.6368187435870105 0 0 0
53 1 -11.718667903447319 -10.515956973154855 -5.298780061496254 0 0 0
54 1 -10.8344308877464 -12.15159288470883 -3.6225893093263597 0 0 0
33 1 -8.754465052214607 -13.309410892415395 -4.429966696374686 0 0 0
36 1 -9.102687591363278 -10.46196350893405 -3.9851788185788966 0 0 0
35 1 -6.987863177069103 -11.59902333273659 -4.893436410908066 0 0 0
545 1 -6.158111891558706 -12.99281142578057 -3.0955782780474106 0 1 0
22 1 -4.526611746792797 -11.332450471391098 -3.7695973394144016 0 0 0
117 1 -2.519277500538392 -12.64739910238478 -4.748215461534777 0 0 0
89 1 -0.7350750683520477 -11.025705476819398 -5.246543012533733 0 0 0
235 1 -1.0643101196041798 -1.1333785798650382 -2.103270773888129 0 0 0
58 1 -12.023855504693394 -7.633253084377523 -5.009018218837612 0 0 0
74 1 -13.830593571645188 -9.417989315028201 -4.4273126799362466 0 0 0
59 1 -11.087052814184617 -9.296194197064015 -3.1677359982898654 0 0 0
40 1 -9.440249605880183 -7.575301425126445 -3.7618177536916235 0 0 0
23 1 -6.506734558059034 -10.215507775407048 -2.9572487252312474 0 0 0
39 1 -7.430652169253092 -8.7021490262943 -4.693923340055386 0 0 0
126 1 -5.7630320349757085 -7.027940778580987 -5.186029524974336 0 0 0
118 1 -5.370903417161211 -9.805824123742411 -5.566115711166372 0 0 0
25 1 -4.846112286216593 -8.57163140182157 -3.514574348965091 0 0 0
90 1 -2.7513615947760375 -9.7054974712347 -4.26846710760147 0 0 0
19 1 -4.894218160164096 -1.6193099264565483 -0.6553487336092072 0 0 0
93 1 -1.0551746358954492 -8.025260809340349 -4.795324167552094 0 0 0
63 1 -12.429962982251357 -4.834733154351371 -4.699046568946217 0 0 0
64 1 -11.437830860937789 -6.287584845427882 -2.9216062164203986 0 0 0
34 1 -9.890373794066782 -13.679039230161054 -1.8796537297159315 0 0 0
62 1 -10.341698983227417 -6.097411645956149 -5.551609914198785 0 0 0
44 1 -9.730309533412827 -4.838875199600913 -3.4624410517347 0 0 0
43 1 -7.811832265193186 -5.939239925258069 -4.289646864422988 0 0 0
134 1 -6.003784703471325 -4.250028042673545 -4.806274516620448 0 0 0
94 1 -3.1164239213028004 -6.940511622749096 -3.808024682749071 0 0 0
28 1 -5.186931054754796 -5.805592728138093 -3.1487553054227373 0 0 0
99 1 -3.318841942683248 -4.0684749334637065 -3.632816104213921 0 0 0
98 1 -1.4121094614195329 -5.330316958035173 -4.606978948837856 0 0 0
80 1 -0.3270698987031917 -6.844038491338971 -2.7810117730588733 0 0 0
67 1 -12.64184757245162 -1.9984106060000055 -4.314721215194325 0 0 0
5 1 -10.775224853729512 -0.44310732961910304 -4.7700853846240445 0 0 0
66 1 -10.618803770881044 -3.223308000530256 -5.204864625664889 0 0 0
48 1 -10.031937152226655 -2.083699093159984 -3.290426563483692 0 0 0
3 1 -8.242681763243283 -0.34871086399544104 -3.6762102837766335 0 0 0
47 1 -7.962333539679137 -3.110655608436243 -4.050397593030974 0 0 0
142 1 -6.208104565666908 -1.3729747491613171 -4.312900429373 0 0 0
141 1 -4.380695924777925 -2.5312247748211245 -5.342705212358199 0 0 0
105 1 -3.812095188185735 -1.273568011830319 -3.3419579410313176 0 0 0
31 1 -5.465315224586449 -3.0136057517195916 -2.721399160083225 0 0 0
104 1 -1.585590536276598 -2.400021239190105 -4.225885216298334 0 0 0
51 1 -12.860606506130857 -10.908955549125402 -2.7156936267041214 0 0 0
56 1 -11.933847721060149 -12.560887344314141 -1.057161778603021 0 0 0
1026 1 -13.94609077574514 -11.295707016924553 -0.09000868470009848 1 0 0
100 1 -0.3534834751901581 -0.01943909399024868 -10.970317967840753 0 0 0
37 1 -10.180076109169768 -10.842635542641323 -1.6074665009541569 0 0 0
20 1 -8.155718892934622 -11.9728490258194 -2.3962985061675983 0 0 0
259 1 -7.62574563595998 -10.581156338903664 -0.31419299393851396 0 0 0
21 1 -7.328168833875003 -13.416811142062068 -0.6152842918368524 0 0 0
473 1 -5.581150465614924 -11.74057344697302 -1.161634135879062 0 1 0
444 1 -12.84844259787349 -3.9382096729276164 -0.04492873085295379 0 0 0
86 1 -3.6111256577826865 -12.910297645795026 -2.125195269615748 0 0 0
940 1 -1.8587623280987895 -11.214850130910898 -2.7047828070462945 0 0 0
8 1 -0.8244521782140666 -12.81781417650798 -1.1058567535911337 0 0 0
55 1 -12.212060323835743 -9.723036924870904 -0.6483990531651038 0 0 0
60 1 -13.007594789557512 -7.994855754868616 -2.2238530295489483 0 0 0
38 1 -12.531142424732906 -6.88259663638553 -0.21618516153860945 0 0 0
42 1 -10.497142629643388 -7.896543334619599 -1.2113069555356972 0 0 0
451 1 -6.452675203663714 -3.3383217352267494 -0.2540815978226174 0 0 0
41 1 -8.537623407548331 -9.08824419791348 -2.0568661203265464 0 0 0
26 1 -6.849163594396981 -7.50336529137002 -2.763035449262425 0 0 0
248 1 -5.913700785047727 -8.842677943930433 -0.8832740500833687 0 0 0
13 1 -3.917670851229948 -9.98237253368032 -1.6506578292116654 0 0 0
15 1 -4.071719722120871 -7.3245683672553845 -1.4536969401027449 0 0 0
930 1 -1.497438657374639 -7.216350953918577 -0.19342244504801265 0 0 0
929 1 -1.2234439713586678 -10.081619544443274 -0.5974465693943749 0 0 0
14 1 -1.992047134974678 -8.492374449491347 -2.276950724135167 0 0 0
445 1 -11.158376780824382 -2.461195413317977 -0.5483993985465307 0 0 0
65 1 -13.359109294774116 -5.320988635032526 -2.0726013283124054 0 0 0
68 1 -11.733068582011246 -3.6538380959318655 -2.737986588945338 0 0 0
45 1 -8.870533384720645 -6.307028162435686 -1.8086244175032231 0 0 0
46 1 -10.884043000138433 -5.084576778025038 -0.85813106416634 0 0 0
30 1 -6.2179579279526624 -6.048305015703166 -0.5390189276340962 0 0 0
29 1 -7.303202087937659 -4.594078444599287 -2.282904224572338 0 0 0
17 1 -4.3926882367556885 -4.448362909286768 -1.1298797800063092 0 0 0
81 1 -0.8218622040187409 -4.022680238324471 -2.488066987213717 0 0 0
16 1 -2.3407136450731336 -5.724601692525644 -1.8710216424411161 0 0 0
6 1 -12.01007663069979 -0.705141700275755 -2.229086960187944 0 0 0
1167 1 -13.71023348109094 -2.3690116581838634 -1.7390057434882245 1 0 0
49 1 -9.316091190481806 -3.4522526061914096 -1.4438627655399117 0 0 0
4 1 -9.507143911133312 -0.6616324351840444 -1.003496773860883 0 0 0
229 1 -14.055196925486543 -1.8431341710529612 -8.18355414676288 0 0 0
1007 1 -0.07024946129349452 -2.857844680468421 -11.391265895257936 0 0 0
286 1 -4.874004658841692 -6.033857003158778 -13.887779759308275 0 0 1
400 1 -9.717421885818736 -2.040626562879666 -14.07983894475386 0 0 1
82 1 -3.097279121892374 -0.016991061875462066 -1.3156164054309034 0 0 0
1427 1 -0.40297934955168024 -13.758321417221644 -5.500586393612142 0 1 0
413 1 -7.964512209496898 -7.750179286761543 -0.03171099339034633 0 0 0
1706 1 -13.196826549012206 -12.921498499832786 1.5015662687708904 1 1 0
389 1 -11.329199282357031 -11.211039173856287 1.1385129385346637 0 0 0
383 1 -8.693853049609679 -11.049192914680807 2.227636015285313 0 0 0
363 1 -10.40280476408343 -12.709112806843539 2.8134510335062117 0 0 0
484 1 -9.397776721425034 -12.212259946585231 0.1447156689265512 0 1 0
260 1 -6.713058324450936 -12.11978618749925 1.2659501992860438 0 0 0
254 1 -4.0033329670616435 -12.053817183039083 2.5044432621112875 0 0 0
827 1 -4.673894249647759 -13.280449385520031 0.456048807403608 0 1 0
249 1 -5.044572985227568 -10.339222261560423 0.8217151810815153 0 0 0
24 1 -2.0208512869958444 -13.138686360437681 1.565674260330299 0 0 0
256 1 -0.31167233617922285 -11.492821806278416 1.168183645316697 0 0 0
251 1 -2.430206101634555 -10.325048577621974 2.1134157254468704 0 0 0
1228 1 -13.37674393271394 -10.081240556132784 1.9407329003902554 1 0 0
390 1 -13.601884347299736 -7.03916129622252 2.2163629186061513 0 0 0
61 1 -11.63368288416137 -8.420509743307303 1.4549646964258667 0 0 0
253 1 -9.580545647289231 -9.46813805594342 0.5527195048149594 0 0 0
375 1 -9.033001344050447 -8.324742870208254 2.575015467987818 0 0 0
374 1 -7.016993105175978 -9.336564869711719 1.7985935663037544 0 0 0
252 1 -5.433602764168285 -7.636686394808146 1.2255688896238865 0 0 0
257 1 -3.2559377577511306 -8.793806383723904 0.35422328010369775 0 0 0
255 1 -4.401005800085871 -9.187037724255276 2.757026660008819 0 0 0
237 1 -2.7066515843384504 -7.355541860816334 2.3975236371640385 0 0 0
239 1 -0.6865132791799056 -8.709038120795823 1.5677048819443389 0 0 0
1195 1 -11.870702391784935 -5.463546146225813 1.701816205103455 1 0 0
420 1 -13.812286640564734 -4.243327733718104 2.417670251973128 0 0 0
414 1 -9.890443386406819 -6.777143477552252 0.9450380160297129 0 0 0
438 1 -10.189770095367376 -3.8951414785389833 1.1583157409371054 0 0 0
422 1 -9.280071595653148 -5.396445978861442 2.8716647414453362 0 0 0
403 1 -7.363729749861887 -6.480827162080777 2.048299742752107 0 0 0
246 1 -7.716323067291708 -3.726629353412079 2.4109384374967604 0 0 0
437 1 -8.250663991422815 -4.920698442507625 0.2740138628133497 0 0 0
429 1 -5.546366666361527 -4.7857057393705755 1.5172551551569509 0 0 0
402 1 -3.5453835847048225 -5.9793843348098905 0.6082650683887767 0 0 0
250 1 -3.0908431886906733 -4.690131520243062 2.7927781671479224 0 0 0
236 1 -0.9054428467173317 -5.970114797247101 1.7036893983019414 0 0 0
832 1 -8.437160944812838 -13.789079566492637 1.8018341581055886 0 1 0
69 1 -12.244830704664166 -2.599813261568851 2.1039081422046664 0 0 0
1106 1 -13.061816994878432 -1.0679444482692038 0.4180887377206801 1 0 0
790 1 -10.480583737456026 -1.0547312514620675 1.5149645392845148 0 0 0
430 1 -8.51878501137014 -2.1170813691785924 0.5358390909760136 0 0 0
452 1 -6.053218735379476 -1.9643037716938565 1.8058869456968853 0 0 0
454 1 -8.060976489026185 -0.7497891362233311 2.7213225088847253 0 0 0
457 1 -6.812415156827039 -0.38162722731219567 0.14341850869069006 0 0 0
247 1 -4.014960684666303 -3.051989378045848 1.1486787360376276 0 0 0
807 1 -4.269174571854387 -0.2734987525451018 1.288285281411298 0 0 0
795 1 -1.5423655715916347 -0.16753132039472973 2.4877800304964275 0 0 0
447 1 -1.3472021601863133 -3.0586961510653374 2.16434813138396 0 0 0
460 1 -2.264362841178876 -1.4939403711270263 0.549240100742125 0 0 0
359 1 -12.433150532783603 -11.602319284851996 3.604268449710922 0 0 0
831 1 -11.592206009182792 -13.14947533316782 5.244727561784881 0 1 0
350 1 -9.904109423161096 -11.356006781511088 4.843443212731859 0 0 0
841 1 -7.762432431991928 -12.570649994598124 3.8824008698214776 0 1 0
342 1 -6.067949140387759 -10.8655477366893 3.485653560834642 0 0 0
277 1 -8.725340961654073 -1.6230058110869745 11.686966824548527 0 0 0
364 1 -5.225380183189136 -12.341201912846598 5.023621797046708 0 0 0
240 1 -3.4848895311464823 -10.707216976161005 4.59427013845815 0 0 0
261 1 -3.1272649312598375 -13.670049905073084 4.214789931078922 0 0 0
695 1 -0.6610888335563487 -13.434950994600028 5.347335862276818 0 1 0
244 1 -1.536873315249311 -11.89932105561707 3.7074219554050245 0 0 0
391 1 -12.851619154215541 -8.72060609555852 4.011754532686094 0 0 0
352 1 -11.879954173054786 -10.255398179797814 5.68675995404578 0 0 0
385 1 -10.752906514415663 -9.899868226938644 3.1518578645677593 0 0 0
376 1 -10.136563922396324 -8.649556965099638 5.131133964550287 0 0 0
415 1 -10.979788902276724 -6.926705930458159 3.4347519315687336 0 0 0
365 1 -8.148907451429178 -9.769970865832537 4.368859374760284 0 0 0
27 1 -6.561340660824553 -7.959501931773513 3.8459407726229706 0 0 0
392 1 -5.602301563906817 -9.536799755556814 5.401118452357572 0 0 0
283 1 -3.8315132095329076 -7.847879612742357 4.785948375732001 0 0 0
284 1 -1.7916703619508265 -9.032808066299893 4.121023740198783 0 0 0
333 1 -10.936317084518185 -9.509012316898051 13.983793378944316 0 0 0
1233 1 -13.043159564408857 -5.784297007771421 4.204866180742087 1 0 0
439 1 -11.307411002225194 -4.153915034554801 3.728287682905645 0 0 0
404 1 -8.46376810416836 -6.812392512461827 4.67216385543443 0 0 0
433 1 -8.782517423382746 -3.946653928068926 5.055704791645976 0 0 0
405 1 -10.533905653505304 -5.65615387187075 5.511723071563214 0 0 0
431 1 -6.7681769792148865 -5.296542446056026 4.154926880939296 0 0 0
393 1 -4.82091916384937 -6.3088442828598605 3.1130385760655948 0 0 0
423 1 -4.245224233943057 -5.089042607036234 5.1451299870745295 0 0 0
294 1 -0.5357930933896622 -4.611464617153022 3.786284656994031 0 0 0
446 1 -13.456175411173156 -3.0143852888798186 4.539889681860689 0 0 0
441 1 -11.713067679189438 -1.472641009926443 4.1316697283498165 0 0 0
428 1 -10.75299931221183 -0.6178037406920378 12.405976376421567 0 0 0
432 1 -9.653418336050994 -2.4692594153814102 3.2791122711598852 0 0 0
426 1 -9.24465426580814 -1.1296767836202513 5.28884185607966 0 0 0
453 1 -7.092179624583578 -2.2639526110923445 4.424385499659696 0 0 0
421 1 -5.172909936891003 -3.5220872616761536 3.4838081275978965 0 0 0
448 1 -3.3500842769516783 -1.825212918099428 3.003417341381109 0 0 0
773 1 -5.411039765459746 -0.6546945136279536 3.6395548431152704 0 0 0
449 1 -4.552330575214464 -2.184306248581729 5.45764818465252 0 0 0
921 1 -2.6955414634040036 -0.40424208913205995 4.970888304661145 0 0 0
268 1 -2.4450024425292174 -3.364301050875987 4.751044743352331 0 0 0
295 1 -0.7526391201483733 -1.698197993867975 4.186951657890106 0 0 0
360 1 -13.562518823651171 -11.977751766652112 6.051062171712395 0 0 0
362 1 -12.885040894889364 -10.565298383756604 8.09489499191444 0 0 0
335 1 -12.630263440400485 -13.438102819072322 7.7264213225448195 0 0 0
351 1 -10.941722866193405 -11.772193055626285 7.177196376944206 0 0 0
867 1 -9.037102503375698 -12.858055000443292 6.410946999059231 0 1 0
343 1 -7.1961913005762455 -11.261016703330009 5.8939854199534025 0 0 0
316 1 -6.329777427139007 -12.819714058206326 7.740990566977363 0 0 0
305 1 -4.6045123639810175 -11.175539643097792 7.080180956353345 0 0 0
243 1 -0.9128167585543849 -10.675234680022871 5.787510786702242 0 0 0
317 1 -2.6678825092341203 -12.29020399276187 6.2044859293619865 0 0 0
1372 1 -2.0523844144880723 -10.889723711749077 8.375611774779035 0 0 0
298 1 -7.801259325766148 -3.3499976104681917 13.145452276870738 0 0 0
377 1 -12.223774264373962 -7.384490306504884 5.9052738609902775 0 0 0
387 1 -13.965372306731094 -9.14383374706323 6.439052389227886 0 0 0
378 1 -11.227937233650326 -8.919948642481202 7.784079609934164 0 0 0
344 1 -9.269645317912353 -10.01406688602809 6.784052126245612 0 0 0
367 1 -9.576919402836994 -7.335517184611318 7.195688517848062 0 0 0
366 1 -6.723999298641843 -9.947086269506604 7.872415324158652 0 0 0
304 1 -7.631020694088581 -8.307701222770532 6.347329725867468 0 0 0
302 1 -6.842898307904936 -7.066441402373948 8.306254290392637 0 0 0
282 1 -4.893556756556022 -8.25157783526926 7.429505931353397 0 0 0
310 1 -2.8667593320022426 -9.295424136456358 6.474787622447952 0 0 0
1374 1 -0.3618512407123671 -9.217128966167977 7.831742231512152 0 0 0
291 1 -1.3587176959435148 -7.717700811166666 6.020713221156015 0 0 0
417 1 -12.622800283179565 -4.524711836769246 6.279573733813351 0 0 0
406 1 -11.764295616223187 -6.044492841648698 8.076624206156126 0 0 0
397 1 -10.003236247972932 -4.3391189459046196 7.550630092883566 0 0 0
394 1 -5.909168287031042 -6.720005785711098 5.819123671997616 0 0 0
395 1 -7.895562870850752 -5.509190841432401 6.667195481075954 0 0 0
424 1 -6.297398196432176 -3.835483575091173 6.032531758566609 0 0 0
281 1 -5.301694387239603 -5.383137601573615 7.7730755277590475 0 0 0
266 1 -3.5750732829809095 -3.6404388731570645 7.247906426034799 0 0 0
267 1 -3.3262577083064926 -6.571290299179296 6.980754279191643 0 0 0
269 1 -1.5543594341370355 -4.968370309837095 6.357894928111072 0 0 0
275 1 -0.7089255418214702 -6.435866102768115 8.103327596382872 0 0 0
821 1 -12.857620358047052 -1.828166758812678 6.748404734097534 0 0 0
407 1 -11.98179982586053 -3.2923236052264624 8.546761191396062 0 0 0
270 1 -3.4457075514321946 -1.526684601113173 13.911281746190948 0 0 0
440 1 -10.824863402009315 -2.8882876128042074 5.814296008734949 0 0 0
435 1 -10.235878444679237 -1.653058473627354 7.944509136901498 0 0 0
136 1 -8.08211153147052 -0.4835596241507112 13.718432930970852 0 0 -1
776 1 -8.258708178710037 -2.8288003047558874 7.167464167954147 0 0 0
450 1 -6.544232072631031 -1.034803175800489 6.472836607482577 0 0 0
264 1 -5.513567544651856 -2.55536882189811 8.132841843926848 0 0 0
297 1 -3.859267371279129 -0.9107722006671253 7.637457306073085 0 0 0
296 1 -1.8597705866239664 -2.0202417305148064 6.639803020521928 0 0 0
915 1 -0.034477489220373414 -0.3640473483604598 6.220235215836144 0 0 0
353 1 -11.958016664320734 -12.188270450327813 9.780925175351737 0 0 0
1236 1 -0.09365939604586693 -7.351249825657252 3.5739317957240395 0 0 0
331 1 -10.083749136058763 -13.379437597090828 9.00432208559928 0 0 0
326 1 -9.447076273926259 -12.055676390048934 10.95437032574588 0 0 0
345 1 -10.247204114434417 -10.602719153508346 9.327977866011992 0 0 0
327 1 -8.332255847289913 -11.658151989454776 8.471908345447147 0 0 0
315 1 -7.443789743081966 -13.062726153881842 10.15110434802607 0 0 0
314 1 -7.686865607945549 -10.360434850264092 10.60982050645288 0 0 0
322 1 -5.793806908578013 -11.431450153160537 9.717052085274194 0 0 0
323 1 -3.759126220151476 -12.644930517761495 8.7614801429329 0 0 0
1383 1 -3.1457763352185957 -11.365052670807549 10.727912065768841 0 0 0
704 1 -1.1796811032177352 -12.58691188247348 9.995355886533293 0 1 0
379 1 -13.30378577154044 -7.8144826343523945 8.486568960584648 0 0 0
380 1 -12.328043169411645 -9.34036434324534 10.152090976226258 0 0 0
369 1 -10.755647732392 -7.618891832796805 9.699025656294946 0 0 0
368 1 -8.549321781654095 -8.738652957126117 8.803402827021813 0 0 0
303 1 -6.103428596920107 -8.555974353937849 10.060104665834544 0 0 0
300 1 -7.937419950567224 -7.478658056798479 10.947497404213681 0 0 0
320 1 -4.1764361337334535 -9.637712523532901 9.269316594993171 0 0 0
280 1 -4.329623039638143 -6.901731041550846 9.632255808698403 0 0 0
290 1 -2.4250932699392393 -7.9412975970990365 8.770285902151745 0 0 0
309 1 -1.5091181097355992 -9.654265838385 10.333200378369767 0 0 0
381 1 -12.765367645716038 -6.398729063405811 10.663490538348235 0 0 0
419 1 -13.642267999040543 -5.058979002242301 8.870649908012762 0 0 0
401 1 -13.121252346586179 -3.5592595756011587 10.9663521862016 0 0 0
396 1 -9.006601744060713 -5.9131563551489155 9.154787963633346 0 0 0
373 1 -11.026948395953081 -4.881061281946305 10.082799248210957 0 0 0
398 1 -8.417946456634107 -4.810714212826088 11.221798926691864 0 0 0
425 1 -7.314222969938962 -4.286244135039722 8.7767125293298 0 0 0
279 1 -6.374751289910556 -5.8487816453927675 10.438407505709446 0 0 0
265 1 -4.6546344597914935 -4.167362327750025 9.93663469470064 0 0 0
273 1 -1.0878320770254835 -3.638195957335883 8.45755615340531 0 0 0
1352 1 -1.798952144116143 -6.804528593353801 10.753038357881039 0 0 0
289 1 -2.728442352638247 -5.1679982735727155 9.003204148713287 0 0 0
272 1 -2.0062878757017018 -4.020388288601644 10.954189362255978 0 0 0
161 1 -6.113268308347658 -1.6391868560970764 12.728247418966554 0 0 -1
418 1 -14.125301276372081 -2.028828207327006 9.161178429198785 0 0 0
409 1 -12.327636568181674 -0.33435544214407464 8.566414287837787 0 0 0
399 1 -13.54059613652651 -0.7561618932536103 11.097680164928263 0 0 0
408 1 -11.456538172610927 -2.0426438256708668 10.4869039263274 0 0 0
783 1 -9.79921622156725 -0.3697771376370742 9.936430709029697 0 0 0
427 1 -9.250273623206084 -3.198860852082259 9.769801550728285 0 0 0
10 1 -2.0291641871692487 -4.324505101426546 0.16626719683865154 0 0 0
263 1 -6.779314595902853 -2.9518185589249377 10.818159081824014 0 0 0
765 1 -7.718209651351405 -1.4774867890890793 9.196986878997407 0 0 0
923 1 -5.052279869315019 -1.2225990580095818 10.20191977065561 0 0 0
271 1 -2.96456112680084 -2.3780397873385635 9.313838945340663 0 0 0
1320 1 -0.45828566029536155 -2.4733798106196563 10.420314162552216 0 0 0
293 1 -1.2402673085618847 -0.7394024849374166 8.883835164739583 0 0 0
332 1 -13.13647304790036 -12.56829737781452 12.375040800209526 0 0 0