LAMMPS data file via write_data, version 29 Sep 2021, timestep = 0

1869 atoms
3 atom types

-14.18881027526076 14.18881027526076 xlo xhi
-13.786069607835017 13.786069607835017 ylo yhi
-14.067159643691951 14.067159643691951 zlo zhi

Masses

1 55.847
2 1.008
3 1.008

Atoms # atomic

166 1 -11.954807152993649 -11.381852349194718 -12.982971811294487 0 0 0
106 1 -13.882937660924421 -12.49769920514525 -11.904473057397778 0 0 0
164 1 -9.111136316991013 -11.678422829653746 -12.217171095922897 0 0 0
399 1 -1.34426484404589 -7.856981559942919 -0.10456886490354478 0 0 0
102 1 -11.100348964283294 -12.760608996982842 -11.200206295681621 0 0 0
161 1 -6.467926497105466 -12.011566970171717 -11.508467626773047 0 0 0
163 1 -7.75870800488332 -13.533769702041166 -13.397955026371685 0 0 0
162 1 -7.281816481093333 -10.525475448910196 -13.313288560787624 0 0 0
153 1 -4.408898619629191 -10.909490798143327 -12.445197036850223 0 0 0
178 1 -2.965286388002113 -12.753795783123646 -13.597070025499098 0 0 0
561 1 -4.992875795296374 -13.756515214008294 -12.63815482586391 0 1 0
151 1 -1.8270037707663889 -11.372602578028157 -11.772733822893695 0 0 0
177 1 -0.32762588957953476 -13.0620443403857 -12.67537718748113 0 0 0
95 1 -13.371111141130628 -9.726114008018165 -11.980973459786483 0 0 0
144 1 -11.570881433763509 -8.54306729400057 -13.090144344851515 0 0 0
156 1 -8.787174566147733 -8.930267339266374 -12.321273504179185 0 0 0
93 1 -10.724902849615768 -10.009903206390444 -11.183503747943536 0 0 0
960 1 -0.0901962397785141 -7.277262496730239 -10.166622494603281 0 0 0
359 1 -6.814827626096512 -7.819670229194087 -13.272668400459539 0 0 1
154 1 -6.030407527321543 -9.235187623420458 -11.50385203065689 0 0 0
140 1 -4.026560926777712 -8.086247314704647 -12.637158597061159 0 0 0
176 1 -2.6615264300524206 -9.96356016995948 -13.610665734807663 0 0 0
138 1 -1.322105581130911 -8.619770978351882 -11.792446057778246 0 0 0
174 1 -2.0987017575298417 -7.018795762100812 -13.568535059513444 0 0 0
85 1 -12.92369399861804 -6.736597364391664 -12.035639309780445 0 0 0
145 1 -12.43099647761033 -3.8800280525276474 -12.00960035890315 0 0 0
1213 1 -13.81475371115248 -5.165120663386606 -13.822666727273793 1 0 1
146 1 -11.053945927708128 -5.62406447231384 -13.09843336707215 0 0 0
143 1 -8.27667426321965 -6.144189103846216 -12.408689134135402 0 0 0
141 1 -6.412471303465455 -4.948773138963949 -13.379093011893405 0 0 0
142 1 -5.501565450582344 -6.496481638301754 -11.645104148773498 0 0 0
128 1 -3.6657109330320825 -5.266759517723383 -12.65854369002119 0 0 0
129 1 -5.111067687941317 -3.5556623088121864 -11.535532183168066 0 0 0
126 1 -0.8880797538638081 -5.775328977815601 -11.750996255897764 0 0 0
170 1 -1.7721031712617314 -4.268166063440789 -13.57145567968502 0 0 0
114 1 -12.14090436430497 -1.1846721258382207 -12.178032211003037 0 0 0
137 1 -13.359384629138827 -2.4971625288656796 -13.821657031402408 0 0 0
136 1 -10.59932536941913 -2.888753082088334 -13.176567308127346 0 0 0
53 1 -9.30958694389911 -1.4714241555606336 -11.43698287356288 0 0 0
131 1 -7.919482433365496 -3.1841638758131374 -12.365225343595183 0 0 0
112 1 -7.367372907761589 -0.2698875230755142 -12.398433297817428 0 0 0
111 1 -5.858695220747464 -2.0442609126660667 -13.311182607063243 0 0 0
280 1 -3.288832599609705 -2.436887005206575 -12.66619543555654 0 0 1
109 1 -4.698776182037136 -0.7210726021319349 -11.493168440940106 0 0 0
284 1 -1.181493317546419 -1.4348052383225536 -13.694155174773233 0 0 1
107 1 -0.43885440890361593 -2.937751639155371 -11.84794856405054 0 0 0
103 1 -12.684762283991471 -11.201526169442609 -10.202255490199082 0 0 0
46 1 -11.720679032523236 -12.560370842737285 -8.50216542491171 0 0 0
101 1 -9.911847884075732 -11.342452863240613 -9.559658272847322 0 0 0
100 1 -8.35756670064288 -13.130647857232852 -10.41272874085979 0 0 0
99 1 -7.236019435667051 -11.826365336046223 -8.76677505010269 0 0 0
516 1 -5.659421758227765 -13.520524638536715 -9.733557767020608 0 1 0
91 1 -8.051877464943264 -10.291063843519613 -10.573288052374098 0 0 0
160 1 -3.700064102147488 -12.563100273814564 -10.856871521935538 0 0 0
89 1 -5.2146822155415204 -10.866599324240308 -9.815624277028661 0 0 0
87 1 -2.544615653536315 -11.0984109546385 -9.11020042100045 0 0 0
159 1 -1.0615792686655219 -12.735567342789734 -9.970670030128247 0 0 0
94 1 -12.204987034308253 -8.259584606681742 -10.24373967206609 0 0 0
116 1 -11.40827360914776 -9.706797994166056 -8.39559956520297 0 0 0
83 1 -10.287317591160567 -7.17915403016805 -11.417795742663609 0 0 0
92 1 -9.364211719446976 -8.517332005989182 -9.484292434547358 0 0 0
81 1 -7.491966903113119 -7.503661496003401 -10.588850713335079 0 0 0
90 1 -6.667701886479657 -9.012757729773792 -8.840904273633551 0 0 0
152 1 -3.253454784313144 -9.601164368596162 -10.819158152273424 0 0 0
79 1 -4.64080790145373 -7.903630929381883 -9.833801135362815 0 0 0
147 1 -0.58993512657465 -10.056056765438964 -9.973674591175865 0 0 0
77 1 -2.069527954796838 -8.299430351137334 -9.168080769708968 0 0 0
84 1 -11.693845343798593 -5.402873653783979 -10.169757382829276 0 0 0
168 1 -13.624401606171057 -6.557911539689107 -9.213026542234513 0 0 0
183 1 -13.209852257401963 -3.619404583087057 -9.249066521012635 0 0 0
71 1 -9.967310364974168 -4.370289791335159 -11.26427518199058 0 0 0
82 1 -9.039766025441747 -5.799473093337174 -9.547546905899146 0 0 0
185 1 -10.514885087417333 -4.0197752790068915 -8.516842478101175 0 0 0
69 1 -7.107139301945275 -4.71966810335093 -10.672772208646721 0 0 0
80 1 -6.273602543828721 -6.119191176495872 -8.742101668438362 0 0 0
139 1 -2.822339549305685 -6.807821531226159 -10.878542579087888 0 0 0
67 1 -4.335038176402135 -5.237958252151769 -9.87938739096105 0 0 0
127 1 -2.4558683537109918 -4.096783083512129 -10.917223770479428 0 0 0
65 1 -1.7077255231763449 -5.461316832451416 -9.032275415471744 0 0 0
193 1 -12.758329627534271 -0.9896407038176935 -9.195900713590117 0 0 0
55 1 -14.057476501797652 -2.2781308862150453 -11.083670752575983 0 0 0
72 1 -11.293640274505249 -2.532937767704947 -10.311107869874185 0 0 0
194 1 -10.103191922505939 -1.3364526589269605 -8.611980196781724 0 0 0
70 1 -8.63221706903267 -2.971299734461212 -9.701880020225959 0 0 0
68 1 -5.871212469004172 -3.3726227974376357 -8.840737818208382 0 0 0
51 1 -6.535796699978104 -1.822765236973412 -10.708763573347719 0 0 0
1102 1 -14.04701993126143 -9.301886038519692 -9.179008068163707 1 0 0
50 1 -5.470667054566546 -0.5655987224601695 -8.819790842630994 0 0 0
49 1 -3.804882247927887 -2.3411080849375736 -9.832018434712092 0 0 0
108 1 -1.9542509565897728 -1.1520937094178745 -10.866170795703733 0 0 0
47 1 -1.1764916664814091 -2.4919724087334245 -9.111416271293649 0 0 0
43 1 -13.431029108427165 -10.80544277771912 -7.513411293829677 0 0 0
1471 1 -13.702269176659446 -13.712383165232296 -7.495000865883986 1 1 0
203 1 -12.52943566179027 -12.302544176509723 -5.785293335612067 0 0 0
57 1 -9.025866402530994 -12.943336349558786 -7.764877204757066 0 0 0
56 1 -10.650978669664882 -11.204845046949226 -6.586964968938444 0 0 0
58 1 -7.80398882440674 -11.561389173606809 -5.848406725260231 0 0 0
643 1 -6.349315790123548 -13.361074747180108 -7.054777747306945 0 1 0
122 1 -5.833257164496397 -10.514707445429998 -7.012440291321143 0 0 0
98 1 -4.409561211353232 -12.263204331135585 -7.9861327253420225 0 0 0
97 1 -3.168318295242347 -10.89034018781668 -6.238110699796053 0 0 0
1386 1 -0.7546995420976117 -5.082254316984653 -0.08457150981456962 0 0 0
96 1 -1.6527975873572096 -12.527380126509739 -7.23828271772649 0 0 0
115 1 -12.870448830774652 -7.971677061299215 -7.464746377853901 0 0 0
212 1 -12.22271012345284 -9.466411033212902 -5.692303821878289 0 0 0
117 1 -10.182722148779604 -8.430650178601477 -6.675257490293001 0 0 0
118 1 -8.670848024791427 -10.244170121306304 -7.761992852033098 0 0 0
173 1 -8.33401660707031 -7.346198891224688 -7.665507537474632 0 0 0
121 1 -7.374209712059275 -8.781870228091615 -6.030572633893659 0 0 0
179 1 -5.54522077413734 -7.6795958739702455 -7.052351453695067 0 0 0
88 1 -3.8508530392689444 -9.257990888321842 -8.15636136683074 0 0 0
181 1 -2.7693502098508276 -7.977804542001584 -6.29933456222915 0 0 0
86 1 -1.2313721482382203 -9.780612107820161 -7.33672194737929 0 0 0
169 1 -12.423228377560484 -5.035752574529404 -7.463484338837215 0 0 0
227 1 -11.713265236173536 -6.649510818814892 -5.558123698685689 0 0 0
171 1 -11.030667829094178 -6.937657651126548 -8.541568105160234 0 0 0
172 1 -9.688797943310407 -5.472383255513735 -6.785349350593025 0 0 0
148 1 -11.070684934684703 -3.8216872169024683 -5.685359337007339 0 0 0
187 1 -7.9332221993053365 -4.375702445110946 -7.849194497043365 0 0 0
175 1 -7.019249518691434 -5.972421023281371 -6.038418082711132 0 0 0
78 1 -3.5711880752891805 -6.546518789667137 -8.000954042414012 0 0 0
189 1 -4.978306633061914 -4.875161429885793 -7.0115168243509 0 0 0
66 1 -3.132815601814478 -3.7234910493931803 -8.106403204067075 0 0 0
76 1 -0.7172294323387298 -6.97091045849987 -7.274976173902574 0 0 0
191 1 -2.295580937385358 -5.217887091336076 -6.380603747382999 0 0 0
64 1 -0.14945766225712376 -4.1541863548327775 -7.369461733677123 0 0 0
150 1 -13.892114142507257 -3.5469119433874603 -6.381703472586775 0 0 0
75 1 -13.377261811126422 -0.5546663453796796 -6.4393846651118185 0 0 0
184 1 -12.028391570445857 -2.294295652351906 -7.4130157013537 0 0 0
186 1 -9.37940509527309 -2.6576420765933744 -6.725789071138443 0 0 0
74 1 -10.718394688076929 -0.9418878562168089 -5.829468479839871 0 0 0
197 1 -5.954275410815832 -0.3279305550156373 -6.2123462415839725 0 0 0
188 1 -6.617734378587321 -3.1809223711156154 -6.218815300406906 0 0 0
196 1 -7.352825959654462 -1.7578929486991086 -7.934359057051416 0 0 0
190 1 -4.529525222953067 -1.9944140960777332 -7.178633924700992 0 0 0
198 1 -2.500012440137068 -0.816641682286031 -8.060544174700373 0 0 0
200 1 -1.8197353459274943 -2.4762198105109565 -6.3581680326671055 0 0 0
42 1 -13.229471578584091 -12.058165165588838 -2.9988167930423177 0 0 0
52 1 -8.046725692745703 -0.12088703545047785 -9.685887730305183 0 0 0
204 1 -11.361367418300564 -10.96801444412469 -3.91459906805596 0 0 0
205 1 -9.75690644888924 -12.6121908581572 -4.828643370717359 0 0 0
206 1 -8.561884138792575 -11.247471380848214 -3.245702487853679 0 0 0
207 1 -7.104862596630556 -13.121734219899274 -4.15297306395726 0 0 0
692 1 -4.319037776398018 -13.382679870811907 -3.505905951907268 0 1 0
61 1 -5.186758768361365 -12.005846708364905 -5.2627942933013365 0 0 0
220 1 -3.8458260371040183 -10.520976575939972 -3.5208824776814023 0 0 0
1 1 -0.5409812293676861 -11.170423361800218 -5.572567387599957 0 0 0
63 1 -2.4523959126770976 -12.235530012348596 -4.458825900846531 0 0 0
3 1 -1.2032054597632449 -10.88301568313459 -2.7820856709108543 0 0 0
975 1 -13.63243290968873 -7.811571548515556 -4.618857590813503 1 0 0
36 1 -12.762017157806426 -9.266406392971248 -2.957593357108072 0 0 0
214 1 -9.410924266614263 -9.863506754403025 -5.0684541068984785 0 0 0
213 1 -10.864861445307435 -8.073907971613973 -4.002251262591566 0 0 0
225 1 -8.911430021136326 -7.138292288525713 -5.015108286449815 0 0 0
218 1 -6.5453065944927165 -10.254781048540035 -4.282928098147666 0 0 0
223 1 -6.176141964505794 -7.337967009547574 -4.325404796265584 0 0 0
217 1 -8.110987359694843 -8.578014287068545 -3.2192810928004505 0 0 0
123 1 -4.712976839336436 -9.132608364823882 -5.420596745640799 0 0 0
216 1 -3.3741191639952106 -7.789019109578254 -3.5216875732683626 0 0 0
597 1 -0.10760470108706599 -0.165498173519655 -11.872671224616818 0 0 0
124 1 -1.9705256442273171 -9.488932651813458 -4.622576590040163 0 0 0
226 1 -13.074685098468608 -4.987152340679771 -4.591632548303712 0 0 0
20 1 -11.81254389709175 -3.633550350162043 -3.0160655085292394 0 0 0
27 1 -12.36592732029835 -6.440672140119365 -2.873672727413867 0 0 0
228 1 -10.257236819546009 -5.357453587223555 -3.9064025421361492 0 0 0
134 1 -8.328786005245197 -4.268630132606376 -5.050643143627628 0 0 0
224 1 -7.632984640893938 -5.716984854531484 -3.176346257651133 0 0 0
120 1 -5.917654407192877 -4.5237698227764565 -4.325859599822767 0 0 0
180 1 -4.289808914369781 -6.357805399870229 -5.425540862385569 0 0 0
105 1 -3.024710246422959 -4.997588727792525 -3.574828167143851 0 0 0
44 1 -3.787749333244191 -3.4619410804860564 -5.311373687439168 0 0 0
182 1 -1.3809677262507165 -6.561288003651706 -4.5987582982332516 0 0 0
192 1 -1.042619432691879 -3.8424615593804905 -4.5954601755529705 0 0 0
5 1 -0.31411094033799003 -5.272691173455776 -2.717922629486809 0 0 0
645 1 -3.628494613538443 -13.676713883788498 -6.209297466626416 0 1 0
149 1 -12.699715439509639 -2.0999940684277743 -4.767646919215908 0 0 0
1574 1 -11.394364340627103 -0.7524819607753468 -3.0856001638060704 1 0 0
11 1 -9.866184784280891 -2.5604378019649587 -3.996910406231164 0 0 0
59 1 -7.933365892645395 -1.4835332289339682 -5.124736260120814 0 0 0
133 1 -7.236106982869036 -2.904458966336671 -3.264060550302421 0 0 0
202 1 -14.079215065314257 -10.617880666764998 -4.552619862100864 0 0 0
656 1 -3.2517579226455773 -0.6437571621526956 -5.463614507856118 0 0 0
199 1 -5.3045144395528805 -1.8162569445422942 -4.384889202584496 0 0 0
29 1 -2.498767734353949 -2.2318898462130665 -3.621332855550044 0 0 0
201 1 -0.6463440074628721 -1.0543157668345184 -4.539820488780121 0 0 0
463 1 -12.545326117886306 -13.549306659188664 -1.2444968720816991 0 1 0
41 1 -12.088966519852354 -10.688006000561364 -1.2334076848629216 0 0 0
1164 1 -14.05893015446837 -11.807242650826502 -0.14795223375457134 1 0 0
40 1 -10.54111518016855 -12.421995849457595 -2.2470377757608766 0 0 0
39 1 -9.203694545108249 -11.104055627994319 -0.6434120118031359 0 0 0
208 1 -7.754034913642666 -12.87671915858367 -1.6146852076112506 0 0 0
62 1 -5.8323797082827955 -11.782943739626932 -2.4754652906897707 0 0 0
209 1 -5.094130539039087 -13.152158259732095 -0.7046048707698276 0 0 0
210 1 -3.0946474159367217 -12.099887491387097 -1.877019800244705 0 0 0
2 1 -0.33068287217391834 -12.398289688081986 -0.9774359805846551 0 0 0
474 1 -11.782670757015998 -13.749307306251886 -3.9543612136010697 0 1 0
15 1 -1.2539714207255184 -0.7863551536111579 -1.8645162829068198 0 0 0
35 1 -11.543638486282443 -7.847696170833776 -1.2319787609807342 0 0 0
406 1 -13.448613468618955 -9.008807164106939 -0.18963236515243231 0 0 0
34 1 -10.11645691044523 -9.60470269409544 -2.2097102206942427 0 0 0
33 1 -8.885473089678289 -8.215458730252973 -0.5338044189000861 0 0 0
32 1 -7.156655374148699 -9.924178051187091 -1.4692400118475568 0 0 0
23 1 -6.850282630964309 -7.2465333853578775 -1.5813082020898328 0 0 0
31 1 -4.53931334808269 -10.272969086920611 -0.823102425086752 0 0 0
219 1 -5.318400416561502 -8.866849641303254 -2.5491551705999314 0 0 0
22 1 -3.9910112438454295 -7.503280344293035 -0.8452826104536211 0 0 0
125 1 -0.6490541458209265 -8.136286476133861 -2.943438095781234 0 0 0
221 1 -2.4993427144696216 -9.1866727924127 -1.7234209191361494 0 0 0
157 1 -10.017545935936933 -10.316558999905569 -13.9591708846964 0 0 0
422 1 -13.886427718142004 -4.6896801062929026 -2.001239454641489 0 0 0
423 1 -13.055702299819485 -6.092009925767277 -0.2517613739720037 0 0 0
25 1 -9.510419853925917 -6.858119600388817 -2.193205229339336 0 0 0
26 1 -11.063431944516145 -4.928364546862889 -1.2399869747827346 0 0 0
135 1 -9.116157794089368 -3.906385909739962 -2.2228755332696917 0 0 0
18 1 -8.30357111473193 -5.475446728540877 -0.4678528462331357 0 0 0
16 1 -6.28129565991672 -4.394418671794222 -1.5072395307826678 0 0 0
222 1 -4.931639836231261 -6.041184696290062 -2.6592862623980835 0 0 0
14 1 -3.5581697219391994 -4.672139378748545 -0.6984663551963664 0 0 0
165 1 -10.433424066497713 -13.056987242606446 -14.051074846541727 0 0 0
215 1 -2.158219464816522 -6.359257933567817 -1.738420491044673 0 0 0
104 1 -1.6034821147983624 -3.5678202888124186 -1.7260005760147514 0 0 0
507 1 -12.099540573484195 -0.5308683907340654 -0.1999627324025841 0 0 0
1223 1 -13.285994254855341 -1.8371153597287293 -2.099575972540931 1 0 0
455 1 -12.661829349527974 -3.2946450482824012 -0.2376727548282851 0 0 0
19 1 -10.577648789974791 -2.126677812574046 -1.2570021211491174 0 0 0
950 1 -8.487380943593319 -1.139149656411858 -2.2069587644895314 1 0 0
504 1 -8.04690425351946 -2.7569918052053133 -0.3725667046722201 0 0 0
9 1 -5.831664182584198 -1.4869923723188077 -1.4232948715306222 0 0 0
8 1 -3.2248803749263253 -1.9198975717128484 -0.8840935503102667 0 0 0
119 1 -4.420785134551018 -3.2387098990741485 -2.594558086147911 0 0 0
30 1 -3.908191781523616 -0.3877978369520374 -2.675620106371836 0 0 0
10 1 -6.591197556498512 -0.14721287190912768 -3.288880885815713 0 0 0
701 1 -2.3044458820049094 -13.511257954593061 -0.0011839737319441213 0 1 0
1155 1 -0.3881107663298913 -2.155331795944303 -0.09300564902716779 0 0 0
1165 1 -13.272324873596581 -13.114587924376403 1.6117384227928166 1 0 0
407 1 -12.766447058568607 -10.38490741514544 1.6385829978933124 0 0 0
924 1 -11.278817641411026 -12.144049973279557 0.4631635297041594 0 1 0
392 1 -10.095928933001682 -10.764146661324963 2.1929470131923594 0 0 0
386 1 -8.619942084821899 -12.327443264950025 1.273980836911404 0 0 0
446 1 -13.328171709045492 -0.0452419901457386 5.423647581423808 0 0 0
397 1 -6.543085508570317 -11.484140312221216 0.21372473728268915 0 0 0
387 1 -5.70722297361349 -12.999978501137448 1.9543877104700833 0 0 0
388 1 -3.764558577840816 -11.857979486970267 0.9166201412856321 0 0 0
293 1 -2.9319479411849034 -13.319485929467184 2.750554681427552 0 0 0
1314 1 -1.1030830382085313 -12.157697301947282 1.844866543584331 0 0 0
313 1 -2.5038330395675743 -10.432139843378359 2.6987336275894833 0 0 0
242 1 -7.805419778602934 -1.9878835786730242 11.194282490064548 0 0 0
401 1 -12.253419538915091 -7.619151894629428 1.4820842479033285 0 0 0
733 1 -0.5053457214023833 -1.6369529201866406 11.744942729973818 0 0 0
411 1 -10.695540555158916 -9.379089871666725 0.4495444508256927 0 0 0
412 1 -9.506064135789895 -7.927654648844959 2.1178010363601345 0 0 0
394 1 -8.013987956320763 -9.688815668491868 1.123450549066714 0 0 0
415 1 -5.98628957072469 -8.605361569003954 0.16047191698236496 0 0 0
431 1 -7.491697104621881 -6.879263404974551 1.3597750298486808 0 0 0
396 1 -5.307596005407595 -10.188875245590927 1.962664022919256 0 0 0
398 1 -3.50533636553134 -8.934049384802794 0.8956929170078745 0 0 0
416 1 -4.844052965164504 -7.341494335475545 1.9894759077613955 0 0 0
316 1 -0.49196242320259387 -9.306030935954169 1.733300906294371 0 0 0
348 1 -2.0797796011746144 -7.734624543883791 2.8446738364546746 0 0 0
17 1 -11.832971465881677 -4.789729426658573 1.5259538648721396 0 0 0
459 1 -13.779516010527491 -5.89311785044008 2.545343080832815 0 0 0
427 1 -10.28764367957971 -6.3453872078873985 0.4341358690621977 0 0 0
428 1 -8.846428288863592 -5.110792558548155 2.317171707010278 0 0 0
24 1 -9.94285058637605 -3.639192317759454 0.6004204645667048 0 0 0
448 1 -6.989277356171131 -4.137604468993306 1.2077434244279068 0 0 0
433 1 -5.4836798032008165 -5.81708546285893 0.21634178358302059 0 0 0
381 1 -4.295508502961823 -4.431119155004248 2.024246557241483 0 0 0
417 1 -2.725146833193678 -6.161382552128008 1.0327442833852665 0 0 0
349 1 -1.6264750241182497 -4.886996610704752 2.8315532919213027 0 0 0
1363 1 -0.16410146514645518 -6.5872764731406095 1.7378782611836954 0 0 0
458 1 -13.27039109965489 -3.0134986055136537 2.5984778328303513 0 0 0
886 1 -12.708435462802917 -0.2417230406313884 2.5965283436998163 0 0 0
274 1 -8.611763727359573 -1.7831116423069684 13.93128449964517 0 0 0
438 1 -11.359304321673097 -2.059891616907093 1.5126766265573508 0 0 0
439 1 -9.267890020935276 -0.7897989356226507 0.656840683601331 0 0 0
450 1 -8.599538352850956 -2.2891576882455293 2.3049737167733113 0 0 0
440 1 -6.592599112127194 -1.2770714809341026 1.2368834216803428 0 0 0
259 1 -3.8269144186522137 -1.6410863996088096 1.8893357918035765 0 0 0
434 1 -5.079663541702002 -3.057426765112014 0.3142255728764667 0 0 0
447 1 -4.527084837854302 -0.12037255672564662 0.13624582427005016 0 0 0
385 1 -2.282503799100141 -3.3545404690779925 1.0267067973250796 0 0 0
264 1 -1.8874571808659777 -0.4357103921201304 0.8807436136140865 0 0 0
1309 1 -1.0915759694352474 -1.9544443875238908 2.621186780313856 0 0 0
390 1 -12.001175876298742 -11.898338822269421 3.2668025438583896 0 0 0
923 1 -13.820425093257288 -13.011537660324368 4.3439307724313565 0 1 0
874 1 -11.106494807432147 -13.333523646374413 5.11612942976096 0 1 0
921 1 -9.224103335381054 -12.177613526501803 4.0222040897584215 0 1 0
409 1 -10.745863909095686 -10.655022747348896 5.194279755427811 0 0 0
395 1 -7.22833047611465 -11.208829020089041 2.8892967393147515 0 0 0
862 1 -6.449067987459947 -12.76554837406766 4.693212438103419 0 1 0
306 1 -4.503337755997906 -11.733331128357845 3.8235825045546576 0 0 0
291 1 -3.689040367642299 -13.047413604758763 5.404483817507231 0 0 0
294 1 -1.6679126715146122 -11.936127519692333 4.475720054712031 0 0 0
1732 1 -0.3031450978674748 -13.766602110578333 3.563921688361596 0 1 0
403 1 -13.436305635454747 -10.11784215581885 4.48409492877996 0 0 0
419 1 -12.964348446077189 -7.336042900906857 4.3743919914711356 0 0 0
408 1 -11.335091804560903 -9.055702713956286 3.312249566396609 0 0 0
425 1 -10.237020391141693 -7.723533535200621 5.089038196361145 0 0 0
413 1 -8.810026194888863 -9.545581863044266 3.9118173346221212 0 0 0
414 1 -6.8711371473387555 -8.488853768944024 2.9380756554541883 0 0 0
335 1 -5.967187268670775 -9.98809790513755 4.708528379015544 0 0 0
343 1 -3.984236407624529 -8.850145817356237 3.703447904022898 0 0 0
307 1 -3.2312806230516564 -10.275156919626474 5.414217949613182 0 0 0
336 1 -5.531322851909454 -7.025113832848563 4.718838607580508 0 0 0
345 1 -2.801406716439903 -7.319477826200104 5.602383021489704 0 0 0
314 1 -1.338696574971097 -9.127464719196414 4.580565664222078 0 0 0
457 1 -12.581005461995616 -4.531760469965597 4.263002575683107 0 0 0
424 1 -11.062154796904228 -6.306593165165274 3.2438145861968195 0 0 0
243 1 -9.711440869034996 -5.021053758376267 5.038283527509833 0 0 0
453 1 -10.482380672088565 -3.5108124922601736 3.2770766104817675 0 0 0
429 1 -8.254987342252921 -6.758114420021345 4.032822361317777 0 0 0
374 1 -6.21965352702965 -5.592659071186501 3.0049835959190965 0 0 0
430 1 -7.6812553176228375 -3.844604577883116 3.9684770496068715 0 0 0
344 1 -3.623833249368708 -5.877420193954145 3.7643619496520877 0 0 0
375 1 -5.097350532568559 -4.178703275005386 4.809821497768024 0 0 0
350 1 -0.88058385684384 -6.211015884872515 4.600148023122934 0 0 0
383 1 -2.3823670940905917 -4.449102513797021 5.530383054687018 0 0 0
1308 1 -0.3050837377927138 -3.4776965215115645 4.390595752280802 0 0 0
454 1 -11.953301368098082 -1.7238729729404643 4.298930147552941 0 0 0
443 1 -13.995857172303596 -2.7879243776198006 5.392978023030768 0 0 0
437 1 -10.098075302722936 -0.5370793488494794 3.341039589912196 0 0 0
436 1 -9.270236375038303 -2.0974472463522638 4.99068175202569 0 0 0
432 1 -5.764166382066115 -2.7226236346685155 2.9791214681238074 0 0 0
452 1 -7.222903580113182 -0.9234587559830434 3.96925090800811 0 0 0
252 1 -4.664300605684097 -1.3215086125199331 4.683481180204598 0 0 0
382 1 -3.0353946088805124 -3.0911325707218698 3.6960597109156943 0 0 0
260 1 -2.6416091815205913 -0.44104767847109727 3.6628418098379676 0 0 0
262 1 -1.8759526787499254 -1.6496772973847502 5.506573502344402 0 0 0
871 1 -12.60015097552757 -11.634241621080612 6.1132941699563865 0 1 0
870 1 -11.806187501798293 -13.157669874473406 7.8159839095978185 0 1 0
391 1 -9.695756837707009 -11.98017158955392 6.839914217951723 0 0 0
393 1 -7.864505161746287 -11.015649135517538 5.724036829265298 0 0 0
295 1 -7.033996982159126 -12.405797139366982 7.506877174046192 0 0 0
300 1 -5.144783467193788 -11.369227180528698 6.513905633745939 0 0 0
308 1 -4.358957031409377 -12.858112698020488 8.35149334479268 0 0 0
315 1 -2.4643830093497723 -11.734661097638556 7.187265534172262 0 0 0
1343 1 -0.4273211530895651 -10.640989963885502 6.315958258740679 0 0 0
1295 1 -1.0483740395246297 -13.56477369041842 6.297260473846716 0 0 0
328 1 -11.390476557568707 -10.318197565785244 7.7960013660464575 0 0 0
1092 1 -1.889270453397625 -10.66214978275619 0.1410479703992511 0 0 0
405 1 -12.128348384035139 -8.728699722809893 6.208111886949457 0 0 0
421 1 -13.673305507675554 -7.07022629639535 7.213806576971216 0 0 0
410 1 -9.343006829899997 -9.382283945578235 6.813123037345338 0 0 0
360 1 -10.952283097420764 -7.495433134509272 7.957599194989019 0 0 0
329 1 -7.445282518455525 -8.086651399964357 5.767374115782712 0 0 0
337 1 -6.5944356757247276 -9.584838586170687 7.501371282128133 0 0 0
338 1 -4.70995133037284 -8.584228477504492 6.488584449982664 0 0 0
378 1 -3.3498996973580297 -7.246377691630648 8.366232257132356 0 0 0
309 1 -3.9307950060127226 -10.112484795526607 8.279195942341136 0 0 0
347 1 -2.0459112881863284 -8.963637359792813 7.135886504145809 0 0 0
275 1 -6.655006692326069 -0.5639435533302617 13.032789502861416 0 0 0
461 1 -13.147007473524672 -4.2918835909140896 7.0877105169543775 0 0 0
426 1 -11.771537176168898 -5.934719992193604 6.112488720098639 0 0 0
361 1 -10.462183675119583 -4.591843877123155 7.856993091873946 0 0 0
366 1 -9.0747951915572 -6.387526125545909 6.850370277271669 0 0 0
244 1 -8.478589056587388 -3.61635575104418 6.6975774522356275 0 0 0
368 1 -6.1726166671207245 -6.876466610343605 7.56326987689506 0 0 0
367 1 -6.890779265195229 -5.344794685979007 5.772420509558234 0 0 0
253 1 -5.64354060755487 -3.998223004278138 7.4785092740006185 0 0 0
376 1 -4.280053413239083 -5.676236313902381 6.459750223649522 0 0 0
377 1 -2.9655002511149675 -4.397262521734792 8.213109255733276 0 0 0
346 1 -1.564580564693797 -6.09847682831683 7.386969506553726 0 0 0
442 1 -12.687056606797965 -1.535173362497538 7.072423432353784 0 0 0
456 1 -11.115300192003655 -3.20419883672424 5.9254425993894735 0 0 0
276 1 -9.966613242360848 -1.9075005735316672 7.653053801733627 0 0 0
444 1 -10.739857091644573 -0.2796848056471717 5.9673701846108 0 0 0
449 1 -6.53031315716723 -2.430446399429222 5.790632836813817 0 0 0
278 1 -8.102162069012781 -0.7081706194579738 6.776945681371945 0 0 0
1252 1 -13.957739617892386 -1.5254057681091329 0.7934572889903642 1 0 0
246 1 -5.243151923884367 -1.120809625207153 7.407541188258225 0 0 0
261 1 -3.798643285399555 -2.6984960260446904 6.601531228141795 0 0 0
384 1 -0.9952961252907997 -3.2015709425072565 7.348357511518863 0 0 0
1682 1 -0.5028989011000142 -0.2418903005035773 7.169428831142774 0 0 0
263 1 -2.433956287592615 -1.4988266770922145 8.344915623007775 0 0 0
400 1 -13.312593422466687 -11.44897652129465 8.81155058053028 0 0 0
319 1 -12.54164161991589 -13.000236005935214 10.564787052734228 0 0 0
875 1 -9.06111266509978 -13.49016620890353 8.62494261872789 0 1 0
322 1 -10.601530260806205 -11.757248774790307 9.65141830466921 0 0 0
330 1 -8.427636283638783 -10.715410694857791 8.655443950052025 0 0 0
297 1 -7.750608007190015 -12.352046200289625 10.30345415109181 0 0 0
302 1 -5.87961545573352 -11.116904047778533 9.246927320551283 0 0 0
310 1 -2.930209329415119 -11.490518078426765 10.036617996793122 0 0 0
303 1 -5.1228965564207165 -12.51967069997863 11.137497897596873 0 0 0
292 1 -1.6970748436009142 -13.254729043129172 9.062081156952544 0 0 0
304 1 -0.5643250175776391 -11.798839826862633 10.826745877152405 0 0 0
357 1 -12.030301034453457 -10.080364369768548 10.521106574542362 0 0 0
355 1 -12.832595338815272 -8.644945157224772 9.000689588197421 0 0 0
356 1 -11.456277601194316 -7.305935785135358 10.68353666933464 0 0 0
323 1 -9.98184605307756 -9.007511106464 9.532241730389252 0 0 0
362 1 -8.151479882414886 -7.837476404775177 8.556358092159474 0 0 0
325 1 -7.3962182009628545 -9.36314559082588 10.360652705768775 0 0 0
331 1 -5.455283878409771 -8.308361529929567 9.236851188292281 0 0 0
339 1 -4.62758713605802 -9.774051026665035 11.099202789844167 0 0 0
370 1 -4.034670648406646 -6.901031796540479 10.996757574911737 0 0 0
1344 1 -1.23065691899534 -10.283503966672885 8.91086486183924 0 0 0
340 1 -2.6728757071526736 -8.690033400404044 10.073457335301459 0 0 0
1374 1 -0.7805637755960202 -7.591531328940859 9.127132692958927 0 0 0
266 1 -13.80414152518699 -4.067699420043972 9.852192680510946 0 0 0
237 1 -12.311545003214702 -5.827415019580552 8.902754876421834 0 0 0
233 1 -10.998793118874463 -4.523333477698502 10.513152030337523 0 0 0
239 1 -9.585134387826164 -6.241072320893578 9.5425466285959 0 0 0
245 1 -7.658856714468671 -5.093702053862094 8.390530942984903 0 0 0
363 1 -6.860338286031134 -6.499410105976956 10.274430080373126 0 0 0
279 1 -6.367972280464864 -3.686175935597584 10.277949056405276 0 0 0
240 1 -8.364300506544655 -4.777201768533159 11.24528856932394 0 0 0
369 1 -4.98295713168951 -5.509122578818111 9.284297575069218 0 0 0
248 1 -3.7585925437462198 -4.151511454659969 10.951744756233662 0 0 0
380 1 -2.1896189066690575 -5.749406062030889 9.90478921303206 0 0 0
1330 1 -0.24313501357148226 -4.752847762029056 9.088153476964507 0 0 0
270 1 -11.842562699759585 -2.852672600330232 8.740269452838998 0 0 0
287 1 -13.435344448290712 -1.114621886266633 9.936931609968333 0 0 0
238 1 -9.22293153445024 -3.202813755817388 9.499442299214518 0 0 0
273 1 -10.68629920713768 -1.6068598170474324 10.501730542173938 0 0 0
721 1 -8.682126190714808 -0.48844387346025364 9.3648731721498 0 0 0
251 1 -7.156722907426257 -2.2807682751065474 8.433568056287111 0 0 0
722 1 -5.943827097152209 -0.9031535584509172 10.090514795094759 0 0 0
254 1 -4.45716514731299 -2.55927067541708 9.346525672885697 0 0 0
255 1 -3.197170614547751 -1.2004302785270422 11.003126907758293 0 0 0
256 1 -5.272618341076539 -2.2408505122943563 12.063985915330363 0 0 0
379 1 -1.6991422383630326 -3.0152552129527592 10.108049765744408 0 0 0
353 1 -13.37079879105377 -12.787071576178525 13.461185497706797 0 0 0
351 1 -14.04746987098176 -11.187949667384842 11.671197201815517 0 0 0
321 1 -11.251041372865762 -11.588386031048698 12.32290470790452 0 0 0
324 1 -9.261991293635926 -10.581948781360769 11.321383137234147 0 0 0
320 1 -9.830003904383865 -13.309188971905806 11.298558929894007 0 0 0
326 1 -8.40902477508882 -11.895672737576653 13.05549235403572 0 0 0