LAMMPS data file via write_data, version 2 Aug 2023, timestep = 0, units = metal

1822 atoms
3 atom types

-14.63448768038138 14.63448768038138 xlo xhi
-13.690536525472226 13.690536525472226 ylo yhi
-13.350984183466226 13.350984183466226 zlo zhi

Masses

1 55.847
2 1.008
3 1.008

Atoms # atomic

1600 1 -10.07415489657966 -10.059539750630226 -10.89288227541812 0 0 0
1602 1 -11.997096548867148 -11.720689310197987 -10.613377701699845 0 0 0
1620 1 -9.621503546619099 -11.605460276758667 -9.112515269912137 0 0 0
208 1 -12.337301519634865 -10.307945191507585 -12.712122746103956 0 0 1
900 1 -9.981503162768712 -12.947430217081852 -11.122280913252023 0 1 0
886 1 -11.865902894060751 -13.10545377672959 -12.805539474979618 1 0 1
1504 1 -11.587408932399859 -10.244691659795567 -8.802863608972686 0 0 0
1339 1 -13.926413591426815 -10.164737039033364 -10.432350782798167 0 0 0
1487 1 -13.242869941555684 -11.7513083632937 -8.472896995262403 0 0 0
344 1 -10.612256633125934 -8.481571300084333 -12.773704042573529 0 0 1
359 1 -10.278017623810058 -11.318118588553569 -13.059810402934296 0 0 1
1488 1 -13.89139651589429 -9.232848415491983 -8.213670381106436 0 0 0
221 1 -14.210210626433488 -12.06020201022433 -12.573690095681338 0 0 1
1347 1 -12.147832888117641 -8.768497586726003 -10.70058722705344 0 0 0
1360 1 -10.077453196589513 -8.6106838537119 -8.87976558310491 0 0 0
1618 1 -7.9859111687081965 -9.804652093312736 -9.160891406747702 0 0 0
1464 1 -8.055784824725702 -11.107003980539337 -11.194079314506938 0 0 0
1470 1 -6.140222343608041 -9.412516783320834 -11.42662800060008 0 0 0
1598 1 -5.900951035259354 -12.09243867489034 -11.694014339599688 0 0 0
1599 1 -7.643568570541334 -12.704982134918456 -9.355125014109635 0 0 0
1616 1 -5.868844498226533 -10.977977773892999 -9.41063143845059 0 0 0
1468 1 -4.049863891697269 -10.397562406369882 -11.753355181606928 0 0 0
1483 1 -4.041891428840394 -9.148480828296059 -9.610849684380241 0 0 0
1471 1 -8.456316817762287 -9.52668652799256 -13.116434067518826 0 0 0
1597 1 -3.74164392976353 -11.981718798215457 -9.867766700361447 0 0 0
1596 1 -3.7639200866639673 -13.005559281383412 -12.002251646169809 0 0 0
1486 1 -8.319683909165985 -8.21297513126721 -11.052259927862977 0 0 0
910 1 -5.62331691079291 13.647828488439387 -9.775141218515532 0 0 0
970 1 -3.350255575787619 -13.527375756261367 -7.9193020442707525 0 1 0
1614 1 -1.8959423557538084 -10.20084870328845 -9.98695061914912 0 0 0
1467 1 -1.810542949043782 -11.323296522239803 -12.140163052231932 0 0 0
1481 1 -0.08135406238634602 -9.483293345677867 -12.16503214273593 0 0 0
1595 1 -1.5009365452308128 -12.78200383242592 -10.137617033187986 0 0 0
1612 1 0.33841725059198957 -11.095982876052995 -10.287708533837574 0 0 0
1478 1 0.2578547846841541 -12.411065528340696 -12.390349752015679 0 0 0
1707 1 0.6273207648765418 -12.635674125209132 -8.44174520757078 0 0 0
1482 1 -2.1773235237422544 -8.570623325172264 -11.809949572222953 0 0 0
1709 1 -1.5954764810960125 -11.605100345598066 -7.985573211735958 0 0 0
1613 1 0.16287456839638992 -9.909202187479416 -8.112075880044676 0 0 0
1356 1 -0.23086836840776392 -8.380080445697896 -9.948284954029951 0 0 0
1498 1 2.07979697609019 -9.276021118401506 -10.35462989920475 0 0 0
1633 1 -1.8926294857650863 -8.872736907957492 -7.670312469800162 0 0 0
1480 1 2.0597544009617366 -10.51219412557502 -12.587424012773399 0 0 0
1631 1 2.35551332518191 -10.829372233093501 -8.507498675482097 0 0 0
1611 1 2.50359999197682 -12.174523960844802 -10.939041350282995 0 0 0
752 1 3.9065323961159883 -8.607348541471934 -12.664206426005196 0 0 1
1477 1 4.254130392564164 -10.207253266983985 -10.75576788074308 0 0 0
1609 1 6.42854024002898 -11.053119213992408 -11.144772826604548 0 0 0
1628 1 6.324182257572932 -9.86414615647245 -9.098394646051881 0 0 0
1724 1 4.5342396415409 -11.849471972827198 -8.9529805355373 0 0 0
1629 1 3.98710492768641 -9.022626265008206 -8.688256309622744 0 0 0
1610 1 4.6486394637564 -13.042588743191754 -11.130653539090286 0 0 0
980 1 6.590915752091451 -12.854537216670735 -9.302446302530559 0 1 0
1466 1 2.3999917416731975 -13.388820594654531 -12.87288713048292 0 0 0
763 1 4.34275853543053 -11.473572204956941 -13.0003905542238 0 0 1
1495 1 6.058261914892935 -8.3650520414898 -10.988144395310723 0 0 0
753 1 6.16757163073218 -9.528409016671059 -13.16573935872873 0 0 1
1476 1 6.541221380302325 -12.346456154286225 -13.274474863608164 0 0 0
904 1 2.7604586285151633 13.670149036527413 -8.793153324887047 0 0 0
1625 1 8.453284706420696 -12.400354188898282 -11.279053022798534 0 0 0
1722 1 8.6226684200998 -10.8441162216178 -9.342051162856887 0 0 0
1627 1 8.29560853543984 -9.195024687960238 -11.375950143206747 0 0 0
1626 1 10.412534828083981 -9.14472458798825 -9.583794362054247 0 0 0
1491 1 9.989161033251388 -10.86661232235845 -11.599171687463839 0 0 0
1509 1 11.870249275790318 -10.957836511780062 -10.096498018065466 0 0 0
1510 1 11.503114145300582 -9.249773271410774 -11.80494192937269 0 0 0
1623 1 10.882801699214191 -13.073001097534943 -11.92227097380787 0 0 0
1624 1 10.342536170924099 -12.421251975454654 -9.620775825404724 0 0 0
1592 1 12.778278458654011 -11.147670651102777 -12.2323748184976 -1 0 0
1593 1 12.507173542740944 -13.464001447906226 -10.17520224503178 -1 0 0
1642 1 12.454208551606254 -12.405346116467982 -7.880455154804924 0 0 0
1646 1 8.313845352235244 -8.117419902291907 -9.136571273875775 0 0 0
1472 1 14.500733198197779 -13.341453273109403 -8.536957104128781 -1 0 0
1530 1 13.256850121513178 -9.290240781932972 -10.157766346924113 0 0 0
343 1 -14.576187057264463 -9.159468331706847 -12.431350303002146 0 0 1
1465 1 14.064867135846644 -11.94301485305801 -10.418252317841755 -1 0 0
1473 1 13.74025179293021 -10.714283183805941 -8.298433005987091 -1 0 0
1506 1 -12.106979230249818 -7.7259626161242 -8.504413003174779 0 0 0
1348 1 -12.759521692224803 -7.325198369276394 -12.512907725471322 0 0 0
1214 1 -10.994161844471954 -5.574685930055672 -12.402057650437127 0 0 0
1363 1 -12.61372306433707 -6.096039172231241 -10.34390232522344 0 0 0
1365 1 -13.281225377053701 -3.569266338142665 -9.946034341439258 0 0 0
1223 1 -13.13240544715229 -4.631080094696342 -12.261039709239359 0 0 0
1222 1 -10.976232442605307 -4.37523262092019 -10.286973837627029 0 0 0
1362 1 -10.603023866896638 -6.020771688848933 -8.458387924623818 0 0 0
1364 1 -11.104593828026768 -3.3251355741959348 -8.139207237515603 0 0 0
1361 1 -10.447252401473527 -7.110008329633245 -10.589107884428815 0 0 0
1508 1 -12.962076865830374 -5.380124978941678 -8.051539177769302 0 0 0
1087 1 -11.37096608485176 -3.0686830667363765 -12.180150901066547 0 0 0
1221 1 -9.08077508589116 -3.8860970533176946 -12.585798800966872 0 0 0
1237 1 -9.323900967646402 -2.6988993583109124 -10.371223881427937 0 0 0
1349 1 -14.234856282864717 -7.750746268794264 -10.195515148552728 0 0 0
1485 1 -6.174433141154761 -8.142091768029685 -9.292137485763707 0 0 0
1381 1 -8.967789159358052 -4.173588434550208 -8.473522925796598 0 0 0
1346 1 -8.806585830235942 -6.679186805915194 -12.781111656971596 0 0 0
1220 1 -8.873074562710137 -5.390506838611557 -10.639017825638186 0 0 0
1379 1 -8.317713614031382 -6.976627523688518 -8.826997123447379 0 0 0
1502 1 -4.424674879549432 -6.292834833641736 -9.33017356758107 0 0 0
1484 1 -4.4222441628402755 -7.537030627924059 -11.540067946806108 0 0 0
1345 1 -6.5955619522558475 -6.471677772030964 -11.043785089440666 0 0 0
1359 1 -4.827117764100231 -4.812203354768604 -11.176605105407026 0 0 0
1377 1 -6.656095097867127 -5.256308700712456 -8.843429897309267 0 0 0
1235 1 -6.9217858617077415 -3.692922255398301 -10.761078362347707 0 0 0
1234 1 -4.912071677525214 -3.423963769760796 -8.990864640639137 0 0 0
1213 1 -7.0584766918558515 -5.130090770340864 -12.943799442675285 0 0 0
1219 1 -5.290062056600984 -3.2758632764165085 -13.000075319271817 0 0 0
1338 1 -6.659177625801564 -7.79152945432234 -13.168881348510569 0 0 0
1236 1 -7.189058624617145 -2.3823774118886654 -8.689143626197415 0 0 0
1358 1 -2.655496022388286 -4.350240072603871 -9.384258753533086 0 0 0
1500 1 -2.3822137936874412 -7.344173578423181 -9.575658894858499 0 0 0
1343 1 -2.6514047311030176 -5.706716742872227 -11.517401857407593 0 0 0
1342 1 -0.5751654741906318 -6.7727501444943625 -11.894058993491718 0 0 0
1357 1 -1.1371045922012666 -3.932888009067373 -11.564431916458418 0 0 0
1355 1 1.1643728966728393 -4.752097135579584 -11.942017714353565 0 0 0
1375 1 -0.543109984919047 -5.6307297751167 -9.71884432794473 0 0 0
1230 1 1.2258763488388489 -3.6141670522852163 -9.800246212092947 0 0 0
1218 1 -3.2218715351331166 -2.8803533754767816 -11.281110554580025 0 0 0
1354 1 1.6430949475590069 -6.42079085049261 -10.146738829370628 0 0 0
1341 1 1.6696834702586223 -7.7521630061592575 -12.221988427943296 0 0 0
1376 1 1.723892354686999 -5.225174000852691 -8.028108792194624 0 0 0
1232 1 -1.0318514037712596 -2.5943460047063365 -9.511825825384465 0 0 0
1499 1 -0.053475341952474054 -7.042121209201127 -7.750491432587546 0 0 0
1395 1 1.1764416301555087 -2.4349778752249236 -7.69630538823556 0 0 0
1497 1 1.9834629528568648 -8.069978967686872 -8.271483812719929 0 0 0
1648 1 6.043565022740442 -7.2342548941985605 -8.785806942126383 0 0 0
1518 1 3.9830480222556943 -6.278142013557878 -8.343944113273562 0 0 0
1479 1 3.948881942257316 -7.425967598139531 -10.462682463008733 0 0 0
742 1 5.750383967294283 -6.820508856777787 -12.83564889275152 0 0 1
1496 1 5.622169645665679 -5.59206167381099 -10.658107544808807 0 0 0
1353 1 3.310490336024934 -5.94142752312451 -12.414369538461276 0 0 0
1373 1 5.249021862331183 -4.075405380140632 -12.626203064976814 0 0 0
1516 1 3.412085541669363 -4.739114540374851 -10.285822424256452 0 0 0
1517 1 5.512438421216505 -4.395056512037755 -8.498711736770998 0 0 0
1231 1 2.9146912916767995 -2.999706879143533 -12.138706834207044 0 0 0
1216 1 3.37114148195273 -3.3318503682559246 -8.110493438328355 0 0 0
1393 1 5.185421089250653 -2.919463659741785 -10.382040465914065 0 0 0
1352 1 7.4496999351537845 -4.8985967113184525 -13.019007326627635 0 0 0
1372 1 7.4619639210553075 -4.049624344444611 -10.793648702564482 0 0 0
1536 1 7.610786858598853 -2.7159649423791716 -8.727198342272835 0 0 0
1515 1 7.8016234571186835 -5.529531170918421 -8.924503075779516 0 0 0
1340 1 12.955810410894017 -7.656932992606805 -11.650079313672862 -1 0 0
1514 1 7.965657547778843 -6.5349749059113575 -11.203845105280733 0 0 0
1494 1 8.01695903209415 -7.80765481928871 -13.211884375965786 0 0 0
1644 1 12.305329885043086 -7.033408502571376 -9.538525242852058 0 0 0
1493 1 10.177954110525508 -7.274170414270187 -11.41172470867627 0 0 0
1534 1 9.673391862746563 -3.5784613450803047 -9.077957278390965 0 0 0
1370 1 9.719341696421488 -4.831812660544648 -11.137454543828856 0 0 0
1512 1 11.933521661082896 -5.5233348393217785 -11.564670195601634 0 0 0
1513 1 10.048921728576492 -6.369574632981482 -9.206176833942441 0 0 0
1532 1 11.796075354540744 -4.523576756469126 -9.372240643225721 0 0 0
1389 1 11.48500676719464 -2.872801015180327 -11.369940377832899 0 0 0
1371 1 9.264327304604649 -3.2344201773985457 -12.965328690740062 0 0 0
1351 1 9.645551560529789 -5.8990216173189305 -13.335415685225485 0 0 0
1215 1 14.477412194775237 -6.1898803209456545 -12.220463016684374 -1 0 0
1511 1 14.278710401762726 -5.448144000671919 -9.863516721066725 0 0 0
1368 1 13.753154939408322 -3.9559357709451923 -11.688886770824974 0 0 0
1388 1 13.843924565742107 -2.75382107389801 -9.679259996246916 0 0 0
1662 1 14.43136458715323 -7.051317714373344 -7.875857401078577 0 0 0
1387 1 -13.561374979538375 -2.1761966425559436 -11.821637189812773 1 0 0
1225 1 -11.947290264836578 -0.24421484216980716 -11.89281864559578 0 0 0
1099 1 -10.209090630661908 1.5743417927049599 -12.079806907188585 0 0 0
1224 1 -11.496520106635076 -1.7774763390854407 -10.07603395690221 0 0 0
1241 1 -12.393260994618922 2.3968931362755086 -11.635482052572321 0 0 0
1264 1 -13.767339639582323 -0.8637040703827132 -9.768635382143394 1 0 0
1240 1 -11.98883679411682 0.9700760558084376 -9.782782031671896 0 0 0
1239 1 -9.778920017492855 0.010161732133910917 -10.206689343970858 0 0 0
1284 1 -14.202692844858499 0.6916823963543219 -11.616189882986257 1 0 0
1242 1 -14.153346958009905 1.9925724441411337 -9.36009278987011 0 0 0
1383 1 -9.345917459073458 -1.5250836164788417 -8.145972938687116 0 0 0
1116 1 -10.27543076774675 2.746117599685011 -9.89428065811721 0 0 0
1097 1 -9.751561886796715 -1.1629745568210481 -12.253230359115626 0 0 0
1259 1 -9.817323035802401 1.1073608116103255 -7.964392560557473 0 0 0
1385 1 -11.524183881816786 -0.6024621027050294 -7.851704501353015 0 0 0
1550 1 -13.347638828023191 -2.436086756043176 -7.753529037488976 1 0 0
1261 1 -12.029913329824547 2.1234589668570774 -7.648972573511376 0 0 0
1096 1 -7.608530708746193 -0.919231526475004 -10.570765066525336 0 0 0
1086 1 -7.5192167087111175 -2.122584613134201 -12.723409068900432 0 0 0
1098 1 -8.118180605979571 1.8495756432313684 -10.266524036978227 0 0 0
1257 1 -5.790422724386007 2.116566021452293 -8.479792280569859 0 0 0
1238 1 -7.599020417964071 0.27040883323162923 -8.363647036600572 0 0 0
983 1 -8.076026489494948 0.5711793734981132 -12.483337200206364 0 0 0
1112 1 -5.864299843613937 0.8762348864825729 -10.676133049328087 0 0 0
1095 1 -5.790694072897123 -0.3165744465108702 -12.869248610924776 0 0 0
1255 1 -5.378172885755346 -0.7564694671287846 -8.805667500352978 0 0 0
1094 1 -5.401610005791152 -1.905771121137752 -10.991333672077136 0 0 0
993 1 -6.15677241343543 2.3701344322090314 -12.612521721946722 0 0 0
982 1 -3.9576382336139613 1.4573360918539464 -12.925769382910376 0 0 0
992 1 -3.9037803036361254 2.6368895454096233 -10.890963672458113 0 0 0
1115 1 -8.160650246481723 2.8234900776571727 -8.111101171290144 0 0 0
1111 1 -3.6228401174498366 1.0522247156012927 -8.883887102969496 0 0 0
1110 1 -3.5598596657156865 -0.11990708835011787 -11.100947537846654 0 0 0
1233 1 -3.5483721792538923 -1.445844488223008 -13.168992972691633 0 0 0
1253 1 -3.1581788712694916 -1.6064010382797278 -9.163165477851411 0 0 0
1217 1 0.6066849859529349 -2.1423742660467173 -11.67121858380385 0 0 0
1093 1 -1.5118696971602912 -1.066945805010091 -11.307828763064133 0 0 0
1251 1 0.7318374700806594 -0.9592188873890244 -9.666712641744933 0 0 0
1108 1 0.44641517315283963 0.7193491679319148 -11.430313474135795 0 0 0
1109 1 -1.4745632088740557 0.28732054573231025 -9.22353679473924 0 0 0
990 1 -1.7263603438476238 1.6014724311153365 -11.194220392520476 0 0 0
1128 1 0.37695866074980877 1.8402819631598426 -9.327750631771348 0 0 0
1130 1 -1.8000202056765513 2.710721252422342 -9.056799944406205 0 0 0
575 1 -1.8555436891005765 0.5843477984096008 -13.30235941325113 0 0 1
989 1 2.3088484078590596 2.56784347092162 -11.602316681409066 0 0 0
1228 1 6.921770049360536 -2.316597771289606 -12.598944108421398 0 0 0
1107 1 2.66472669993437 0.8547961212455633 -9.786789865844783 0 0 0
1092 1 2.655101540496389 -0.2256747313830907 -11.92472150462805 0 0 0
1229 1 4.724975510286754 -1.2863737619271003 -12.267449320608282 0 0 0
1091 1 6.58278650187037 0.5104815502656699 -12.401847978810567 0 0 0
1249 1 3.0363690816453683 -1.781291140480878 -9.999908498866773 0 0 0
1106 1 4.391602427142338 1.404692345597832 -12.002912462639166 0 0 0
1269 1 4.8532743784104895 -0.07739937099406369 -10.124052935521943 0 0 0
1413 1 7.269822376568644 0.0221359431164867 -8.489390646942356 0 0 0
1125 1 6.569171912574628 1.7073596814455136 -10.314959134474414 0 0 0
1374 1 5.3362602736204785 -1.6189166096466554 -8.194749210293601 0 0 0
1248 1 7.031763907654906 -1.1482183936046066 -10.518785298745492 0 0 0
1126 1 4.509659848633827 2.53131149980533 -9.875742447570577 0 0 0
1270 1 4.916642510662182 1.041734826808943 -7.998998226283481 0 0 0
1250 1 3.0999786726466496 -0.6697597168239131 -7.792581539198426 0 0 0
1127 1 2.705165645376745 2.095957374993759 -7.59994750710689 0 0 0
1390 1 11.607948026444362 -1.7365284142020894 -9.270056155470824 0 0 0
1392 1 9.37530403378354 -0.8481083745863067 -8.81805216312777 0 0 0
1391 1 9.210263730581957 -2.0718712226892677 -10.930705453827308 0 0 0
1268 1 8.891421783997735 1.9943235350443107 -8.545864937729752 0 0 0
1247 1 8.784078977365642 -0.5757016703038076 -12.887606226728991 0 0 0
1411 1 10.984035821641417 1.120240576944779 -8.94558488952681 0 0 0
1267 1 8.969507629897883 0.5737550728345351 -10.758715078286393 0 0 0
1246 1 11.06976337378628 -0.22031959219628838 -11.164887313259435 0 0 0
1105 1 8.439185680027055 2.275396830776142 -12.67777750144516 0 0 0
1123 1 10.817960949111633 2.680686522268619 -10.902681218536916 0 0 0
1104 1 10.666720403438653 1.4114951102231394 -12.906982752949165 0 0 0
1265 1 12.907198028099764 1.6886463420594655 -11.27534210421218 0 0 0
1266 1 12.946422882743775 2.909016277354258 -9.078644975429134 0 0 0
1227 1 11.106508768620753 -1.5249838929775699 -13.080802674992063 0 0 0
1409 1 13.245226592661094 0.0823146912296 -9.247613079332634 0 0 0
1244 1 13.423634291678873 -1.1537153790672061 -11.423968363983274 0 0 0
1100 1 -12.455647987298622 3.7476596920457155 -9.554589413432925 0 0 0
1102 1 -12.805315601425727 6.430920962744594 -9.23620876353198 0 0 0
998 1 -10.402903269998657 5.478762470547949 -9.557227107868226 0 0 0
1118 1 -12.854248106019167 5.289093744199743 -11.436707896877337 0 0 0
922 1 -11.009020264489838 7.059189144707201 -11.398472505062147 0 0 0
1140 1 -13.25248359724032 8.007513539168393 -11.065053072194221 1 0 0
997 1 -10.60076587471487 4.2503208521068885 -11.753924548702278 0 0 0
1016 1 -11.135085628627056 8.1681765440641 -9.16595064459954 0 0 0
1000 1 -13.125529431245404 6.932656291998697 -13.195209916230079 0 0 0
1014 1 -8.81507969791808 7.340419884731634 -9.696561239409116 0 0 0
920 1 -8.763647635529905 6.100032356570146 -11.987235025910742 0 0 0
984 1 -8.391416107402787 3.375723648970549 -12.158409215072586 0 0 0
1114 1 -6.202529852508883 3.5120299872053877 -10.36508300776701 0 0 0
996 1 -8.357672179935456 4.542387454133955 -10.021358931739558 0 0 0
994 1 -4.429231865889877 5.409488689305242 -10.536690787361882 0 0 0
995 1 -6.494313316645494 5.204114213177746 -12.191423409285813 0 0 0
919 1 -4.728381169412103 7.0557269847015505 -12.404299525922024 0 0 0
1012 1 -6.55466168173678 6.444599410516972 -10.072755870871376 0 0 0
1011 1 -4.362982895674561 6.545700243611787 -8.260607314577777 0 0 0
931 1 -4.826667368763701 8.206799656595042 -10.17670703528648 0 0 0
932 1 -6.900337989549044 7.967642998620523 -11.936705759517617 0 0 0
918 1 -4.359307827392248 4.320801978717061 -12.755942225827596 0 0 0
1134 1 -6.163487812549802 4.74056849628305 -8.220011510716013 0 0 0
1113 1 -3.9836248999749024 3.822057724371419 -8.740260295375098 0 0 0
1013 1 -6.55755435471238 7.615764894691111 -8.015811627073251 0 0 0
1136 1 -8.286864822388754 5.694616931155867 -7.772493914083089 0 0 0
991 1 -2.2181895521502195 3.2332316397461547 -12.969234650131881 0 0 0
1008 1 -2.223040029909585 4.453593090366397 -10.785620990686326 0 0 0
1007 1 -0.025299284993831606 4.6000647470312614 -9.112503284749792 0 0 0
1006 1 0.018780380165727806 3.4226979041978858 -11.176935916687583 0 0 0
1132 1 -2.202338373666551 5.669927103179141 -8.717166425230719 0 0 0
1010 1 -2.677853452939873 7.115770732947212 -10.736784242765689 0 0 0
1009 1 -0.36785124738704766 7.37443475281432 -8.797199104210803 0 0 0
927 1 -0.26954693253611417 6.1514108530673575 -10.943835546559248 0 0 0
928 1 -2.4564472077065123 5.915963773023215 -12.806039378656296 0 0 0
944 1 1.3988239828787847 8.068742937759044 -11.10146324514007 0 0 0
668 1 -0.7394140128637847 7.724032195742037 -12.908662475483606 0 0 1
1026 1 1.8858301637249717 6.3543665139358545 -9.311298856909975 0 0 0
1030 1 -2.4900602074288933 8.40677555949205 -8.451039031955492 0 0 0
926 1 1.940455891081747 5.277219628918122 -11.440635465755916 0 0 0
681 1 -0.379895485977082 5.006170421602718 -12.997953762950196 0 0 1
669 1 1.3723544955921874 6.758710134249519 -13.189764328580976 0 0 1
930 1 -2.9631174166584024 8.792357851383258 -12.513323537677937 0 0 0
1289 1 6.611436289708646 2.8614526872734025 -8.142350007102415 0 0 0
1005 1 2.319270151397486 3.645229640375458 -9.579556431179011 0 0 0
988 1 6.175653074599268 3.2046939340460767 -12.148111834677064 0 0 0
943 1 3.6447193666119766 8.1407906254966 -9.2517030109293 0 0 0
1004 1 4.049484001269068 4.241560951640039 -11.750174210048112 0 0 0
925 1 5.859384698380822 6.100859946207603 -12.062687945655275 0 0 0
1024 1 4.084744470045457 5.375563966785013 -9.738649009124401 0 0 0
1145 1 6.328654224357351 4.505717068787476 -9.993068730005247 0 0 0
941 1 5.79947043438079 7.233042674747264 -9.790013902301194 0 0 0
942 1 3.5386891319691394 7.002480091502477 -11.655554119862577 0 0 0
1164 1 6.112924293283935 5.726814632735632 -7.929725585205989 0 0 0
940 1 7.658035452985786 7.817552464613126 -11.895855296993618 0 0 0
1146 1 4.464140023361701 3.936561698106047 -7.813783261695641 0 0 0
1122 1 12.61614897720468 3.26564051344889 -13.052010990465199 0 0 0
1143 1 8.582923462550362 3.4580904437511855 -10.474572242250806 0 0 0
1023 1 7.971119216367644 6.173135589126794 -10.017253420150706 0 0 0
1003 1 7.992057010001879 5.0659942820072 -12.228630404839354 0 0 0
1287 1 10.703501695558618 3.9583686311151247 -8.539171365865176 0 0 0
1124 1 10.217312797779382 4.269724280751408 -12.712985764323884 0 0 0
1002 1 12.193780585390218 6.1135897665424395 -12.730812967243095 0 0 0
1022 1 9.752242208892103 6.8525085881181695 -12.464707766610914 0 0 0
1021 1 10.18894420149726 5.337930857269644 -10.571967879021393 0 0 0
1162 1 10.329176242194805 6.567999996861072 -8.304820381893308 0 0 0
1040 1 12.069476951504413 7.047920667266123 -10.651888643711716 0 0 0
1160 1 12.50734062100602 5.562418929442895 -8.751491458000793 0 0 0
1144 1 8.42074731509203 4.769212346614683 -8.279343405788982 0 0 0
1142 1 12.466489953695316 4.425648947372029 -10.884126167696966 0 0 0
1042 1 9.752420329338321 7.952303453825923 -10.186238046309805 0 0 0
1041 1 12.085605145201537 8.21886127807339 -8.473988837049738 0 0 0
1043 1 7.8823237724653445 7.356225211905656 -7.979769139411028 0 0 0
1285 1 14.601926589735665 4.728271548355906 -9.122806783287725 0 0 0
1121 1 -14.600490630990748 3.460700412916804 -11.329243290559704 1 0 0
1141 1 14.281540942470833 6.169374022978328 -11.023340513830968 0 0 0
1039 1 14.313720440091998 7.311737617592669 -8.979886103700164 0 0 0
1019 1 13.930183835224007 7.783806620991136 -12.782527791329349 0 0 0
1001 1 14.277227415831288 5.057503876919647 -13.203063734530373 0 0 0
1806 1 -11.633545124871649 -13.383326296722466 -8.736235828719723 1 0 0
1622 1 -13.701117788176232 13.687246453773867 -10.647491513094176 1 -1 0
937 1 -13.33638371302556 9.21897653635208 -9.017676531153487 0 0 0
901 1 -11.670038295258136 12.710423932921945 -10.96245671042118 0 0 0
936 1 -11.389288880535398 9.775724968463958 -11.190251849492874 0 0 0
954 1 -11.458316312335102 10.886064246337408 -9.189823312463403 0 0 0
956 1 -13.595670029126474 10.894337480043156 -10.870080324759183 0 0 0
885 1 -13.972688138467396 12.313076487364146 -12.863036720680478 1 -1 1
1076 1 -13.552169558987982 11.949332116068117 -8.756726233609262 1 0 0
899 1 -9.573050401656303 11.651149981168757 -11.410856501639786 0 0 0
1601 1 -9.671772062051218 12.798351968492021 -9.254991138114143 0 -1 0
894 1 -13.558285803725507 9.762297384145388 -12.992029118732992 0 0 0
934 1 -9.254314338801262 8.845981195331131 -11.566350565647571 0 0 0
935 1 -9.294692459785477 10.128911934328055 -9.50923087447805 0 0 0
911 1 -11.78098357343205 11.535766693674645 -13.08068352074049 1 0 0
361 1 -9.890419229466767 13.162374117399526 -13.252518722020753 0 -1 1
898 1 -7.690597154108019 13.471854989993385 -11.556189275859454 0 0 0
933 1 -6.968001352759181 9.127667199441547 -9.788548615415708 0 0 0
896 1 -5.1092154318776615 9.890305613487971 -12.148678510711033 0 0 0
897 1 -7.365982708018998 10.630725955902808 -11.778103223277668 0 0 0
950 1 -5.082675960340557 10.948452752249409 -9.984829285005215 0 0 0
952 1 -7.339081926015781 11.897998485750488 -9.601599620293651 0 0 0
909 1 -5.54674106126193 12.51829451572593 -11.842236629222466 0 0 0
1032 1 -4.7739257738273135 9.458357049501377 -8.16061355902118 0 0 0
951 1 -5.147279080607596 12.104588198571797 -7.885451515465477 0 0 0
907 1 -3.3237373902488425 11.433053843988816 -12.296890160196213 0 0 0
908 1 -3.310601040133692 12.804393148031263 -10.205506676435796 0 0 0
905 1 0.5795212800823464 13.544645536297132 -10.581685503857383 0 0 0
1594 1 -1.4885431095379147 13.245171900700633 -12.33434482380721 0 -1 0
929 1 -0.7279715674873533 8.937341698887085 -10.729842303638609 0 0 0
948 1 -3.0097477385967046 9.848878990114866 -10.38697327831056 0 0 0
946 1 1.079275492666195 10.688921035928331 -10.781565677328945 0 0 0
906 1 -1.2572870490959769 11.664927991500644 -10.456849720314938 0 0 0
947 1 -0.7433604247613985 10.185657084428424 -8.621949337770399 0 0 0
966 1 1.0518035179089154 11.876349433744657 -8.634279844545421 0 0 0
968 1 -1.1783422567297634 12.871722970397638 -8.335796188874923 0 0 0
658 1 0.5870536823208212 12.238223767250155 -12.705560049911835 0 0 1
895 1 -1.1592142759470523 10.356645266348451 -12.608164031940557 0 0 0
949 1 -2.9880045473449446 11.175008502246271 -8.22689886026509 0 0 0
1028 1 1.3640683636915547 9.134408142737524 -8.898490850373907 0 0 0
774 1 1.128312981821546 9.40790783517706 -13.022667864370613 0 0 1
902 1 5.462986773757791 8.789991381395701 -11.59971274060158 0 0 0
961 1 7.5961350806402095 8.835108382685444 -9.848499241618368 0 0 0
903 1 3.2666621568893532 9.64115326067305 -11.34413480333312 0 0 0
1607 1 6.80286873841948 13.282614077431074 -11.36279273443472 0 -1 0
962 1 5.376431204848981 9.885432651869401 -9.559806697656622 0 0 0
659 1 2.818373240927155 12.3943225465807 -10.995717763369736 0 0 1
945 1 3.236229589349282 10.733791883833671 -9.109879546900011 0 0 0
964 1 4.880322024537634 12.702341267757422 -9.214940927172568 0 0 0
916 1 5.03298299306476 11.618297813223059 -11.33977254354155 0 0 0
978 1 7.0178377633212286 11.612242008834077 -9.56326021996288 0 0 0
914 1 7.1664408147878085 10.576055748135438 -11.830263305728922 0 0 0
764 1 2.8440180614090025 11.298506572061118 -13.089006225442148 0 -1 1
1608 1 4.746220070429544 13.26514246077392 -13.321266878219282 0 -1 0
939 1 11.596903376520554 8.690626288760331 -12.44998619840586 0 0 0
1720 1 8.739895613581105 13.299748312170504 -9.56119390353295 0 -1 0
976 1 9.228541954581555 10.65667249180019 -9.879395529080979 0 0 0
1605 1 9.07914952490631 12.293043800237673 -11.802979872431164 0 -1 0
1718 1 10.879668622166765 12.333211163950086 -9.79641151515446 0 -1 0
960 1 9.396793859579766 9.583713457221645 -12.062332353117284 0 0 0
912 1 11.243008936426243 11.447219504683996 -12.263174627424931 0 0 0
959 1 11.647710465819454 9.961641817177167 -10.291662030016708 0 0 0
975 1 11.454918141944173 10.709054567769165 -8.080210486384939 0 0 0
1474 1 12.985221029634637 12.465149187949397 -7.9551978776207095 -1 -1 0
1062 1 9.696709148943086 9.18601653627534 -8.029796853764442 0 0 0
1604 1 13.282863105139327 13.48117034553555 -12.390071413091475 0 -1 0
974 1 13.462940763731744 11.666595546643666 -10.313153021235342 0 0 0
958 1 13.424399771513734 10.458302958871215 -12.616059292651121 0 0 0
957 1 13.827884125805411 8.95719543894111 -10.733119608313912 0 0 0
1060 1 13.787085889813042 10.115391594254103 -8.461653468040847 0 0 0
1619 1 -11.460716557214841 -11.69889988871089 -6.766637809956901 0 0 0
1734 1 -11.83030769603183 -11.163270340757794 -4.603573781448386 0 0 0
1489 1 -12.205017356556759 -9.374418406733236 -6.4352143396759365 0 0 0
1714 1 -9.653040026013436 -12.081613937769873 -5.123882197879679 0 0 0
1638 1 -10.094255422775486 -9.220539989613957 -4.804228143321724 0 0 0
1736 1 -14.087494719876297 -10.237901185899977 -4.187547842941738 0 0 0
1792 1 -13.84254350318748 -13.120921284005759 -4.397500138086031 0 0 0
1733 1 -9.755723200233383 -10.80786289431034 -2.9446549729462923 0 0 0
1603 1 -14.271033711234942 -11.353292701865216 -6.280275613772416 0 0 0
1788 1 -11.379385464480828 -12.806467446623751 -2.775827467707975 0 0 0
1715 1 -9.63894699675848 -13.350640000498474 -7.165824884773854 0 0 0
1641 1 -12.35445193737424 -8.54073644794515 -4.19915916600795 0 0 0
1640 1 -11.929440351298226 -9.984581246495019 -2.3754843213678285 0 0 0
1637 1 -9.814085074911642 -10.194488762590602 -6.985221822929486 0 0 0
1791 1 -13.671321862701134 -11.782089990504701 -2.2788493575473296 0 0 0
1621 1 -13.05308926358124 -13.281207513281087 -6.748120359507765 0 0 0
1194 1 -9.164982186070564 -13.65660752059162 -3.2019546282705775 0 1 0
1754 1 -10.021131811201935 -8.105642011629755 -2.5623372561955478 0 0 0
1615 1 -3.779542703154851 -10.821396805754485 -7.815518952531691 0 0 0
1711 1 -5.6091278199687356 -12.57478574887616 -7.622685268418621 0 0 0
1732 1 -7.813880910143277 -10.285424766428658 -5.17584886274706 0 0 0
1713 1 -7.742740210113768 -11.379275409848947 -7.250225517451949 0 0 0
1617 1 -5.830777223506455 -9.769376434831301 -7.351496289409061 0 0 0
1730 1 -5.622267768721072 -11.227913943519155 -5.467550764017615 0 0 0
1786 1 -5.383289190088309 -12.812261023667867 -3.562054842699151 0 0 0
1731 1 -5.6026461351435 -9.98708629395189 -3.3799368184150875 0 0 0
1787 1 -7.478984948985473 -11.77018638916691 -3.157755976012554 0 0 0
1752 1 -7.871965623033573 -9.130706739032712 -3.037361478293233 0 0 0
1712 1 -7.355921328581806 -12.94496579410319 -5.471008496411126 0 0 0
1634 1 -3.7042205192618667 -9.476603649130011 -5.713181934922591 0 0 0
1636 1 -5.98340942120287 -8.37821209136116 -5.1491750870765465 0 0 0
1750 1 -3.973571552510057 -8.307902893708338 -3.5225642156325367 0 0 0
1503 1 -8.000868481469627 -8.55188090451397 -7.025158014862385 0 0 0
1710 1 -3.4427379538281695 -12.162554581767916 -5.843529561411413 0 0 0
1729 1 -3.38839248022083 -10.973263431929666 -3.7574835627419425 0 0 0
1632 1 0.19035530340333295 -8.707365648374756 -5.969316936133322 0 0 0
1728 1 -1.5487068620993156 -10.510529206771789 -5.8409555909302 0 0 0
1748 1 -1.64363585516611 -9.213158856465144 -3.677903711200729 0 0 0
1784 1 -1.3248723899893022 -12.072606789341167 -3.9528093276071115 0 0 0