LAMMPS data file via write_data, version 2 Aug 2023, timestep = 0, units = metal

1872 atoms
3 atom types

-14.352859039180133 14.352859039180133 xlo xhi
-14.354724331176998 14.354724331176998 ylo yhi
-13.310559315486508 13.310559315486508 zlo zhi

Masses

1 55.847
2 1.008
3 1.008

Atoms # atomic

1800 1 -12.112738828708663 -12.864326079645211 -11.730673416222851 0 0 0
1798 1 -10.066289158824144 -10.935746435034648 -11.471527281814627 0 0 0
1643 1 -12.44989550420409 -10.433172135527869 -11.774402816857613 0 0 0
1822 1 -11.770175369680986 -9.612406219638533 -9.598255128744348 0 0 0
1846 1 -13.65476340168571 -11.553238263518587 -10.011546145938317 0 0 0
1324 1 -11.26405471037016 -12.002832926547438 -9.610609130901237 0 1 0
1096 1 -9.588947214453437 -13.521468459137846 -11.362217056184793 0 1 0
1810 1 -9.356135295316768 -9.930279197547677 -9.223557124626698 0 0 0
1812 1 -14.107064641414901 -9.10977306699698 -10.029930638051171 0 0 0
1847 1 -13.141973219996235 -14.006704317680507 -10.013306786560719 0 0 0
1844 1 -8.868796651626829 -12.552300658652989 -9.279017194053871 0 0 0
1845 1 -13.012736632891237 -10.587348790271744 -7.775099210995899 0 0 0
1323 1 -12.589645974127304 -13.04437444416249 -7.779843030161022 0 1 0
1809 1 -7.503433389695377 -11.471526998593719 -11.043051873117628 0 0 0
1811 1 -6.359264233485071 -10.270827483324124 -12.92930066467759 0 0 0
1728 1 -4.042907783739503 -10.777845863970464 -12.642596125518088 0 0 0
1797 1 -5.159723232655697 -11.743616079021955 -10.691997263617603 0 0 0
1629 1 -5.696050212843742 -9.462199059934331 -10.705377139925686 0 0 0
1796 1 -6.493522660308237 -12.910747104443228 -9.061630721836517 0 0 0
1807 1 -6.96065549833013 -10.485882434127692 -8.946084164515522 0 0 0
1805 1 -4.619200634821112 -10.875604900524033 -8.533036870326033 0 0 0
572 1 -6.000825401726338 -12.620878536198731 -12.886840140006335 0 0 1
1741 1 -8.095523906452275 -9.053959342624758 -11.09975773638132 0 0 0
1095 1 -7.098428827043874 -13.94102925952186 -11.14147395920923 0 1 0
1795 1 -4.118515714339075 -13.301573174318257 -8.608251410372368 0 0 0
406 1 -3.463209494593732 -13.173339373927716 -12.622190754589527 0 0 1
1727 1 -3.141477182083868 -9.800697798192072 -10.407648669116025 0 0 0
1726 1 -2.80055379827264 -12.308273571787947 -10.264575664086713 0 0 0
1613 1 -0.7595863130733616 -10.249369663621081 -10.032983109058287 0 0 0
1601 1 -0.4193764633431023 -12.673787696125292 -10.036960053970066 0 0 0
1712 1 -1.7014339847303308 -13.729802993647068 -8.14108817481086 0 0 0
1725 1 -2.0484059412743427 -11.23900078574021 -8.225186478849515 0 0 0
1711 1 1.9752289748159821 -13.02797012457047 -9.745988695748249 0 0 0
1724 1 0.5467638679141071 -11.843206188288661 -7.906437318141341 0 0 0
1478 1 0.8461025772092121 -11.678407217068955 -11.957628727500426 0 0 0
392 1 -1.6246554290798478 -11.204092675908136 -12.28690350252198 0 0 1
1612 1 1.7462114563322206 -10.628984769241946 -9.788564322038969 0 0 0
1614 1 -1.0627251287282125 -13.681773066426347 -12.30660609751251 0 0 0
546 1 0.4666698434811405 -9.197912976207338 -11.90625048136533 0 0 1
1588 1 1.3704309383348665 -14.152352718547608 -11.955207949097119 0 0 0
1698 1 0.7050399965755378 14.31067281519113 -7.892834418810453 0 -1 0
1623 1 0.042102841232456 -9.334055523653248 -7.859836087737863 0 0 0
1737 1 -2.5675371670963383 -8.755294612041313 -8.177902287758222 0 0 0
1599 1 4.1399859209786225 -11.077224788936217 -9.432494550509904 0 0 0
1468 1 5.735595577901266 -12.46279311724612 -11.290673855171837 0 0 0
1598 1 6.555597030131706 -11.381361216900538 -9.079419920262573 0 0 0
1600 1 3.2765909095540895 -11.993931891863456 -11.633554040402341 0 0 0
1477 1 5.341128979764276 -10.015657033364329 -11.260713458951825 0 0 0
1587 1 4.456294479405232 -13.476444913844043 -9.40162555298237 0 0 0
1488 1 6.087363160049785 -8.934531045674465 -9.095316586678425 0 0 0
1476 1 7.802988612242265 -10.340905462004898 -11.067142767834914 0 0 0
1490 1 2.8833597970960536 -9.56862501347095 -11.685504834202582 0 0 0
1584 1 6.914908920540865 -13.94209353286619 -9.140568727678888 0 0 0
793 1 6.998479583484444 -11.50720640644818 -13.219233070322188 0 0 1
665 1 6.659528270170886 -9.031269249824376 -13.120525826710317 0 0 1
792 1 7.392814160428214 -13.82570826863464 -13.1364952351609 0 0 1
1466 1 8.205475673651305 -12.7177325184783 -10.992551489567088 0 0 0
1344 1 8.493243167672228 -9.397935581023948 -8.883025755505244 0 0 0
1474 1 8.87998253752617 -11.960167169356525 -8.706642433687826 0 0 0
1465 1 10.632120793933227 -13.136788937930202 -10.568700916026671 0 0 0
1337 1 10.15449108772385 -10.71835087106599 -10.564120565338623 0 0 0
1334 1 12.577901786526384 -11.238276664288938 -10.393809988632013 0 0 0
1332 1 13.00901678391235 -13.666995048603798 -10.12957071558119 0 0 0
1336 1 11.465112685025455 -9.809449154007567 -12.392956865641455 0 0 0
764 1 11.788420541185696 -12.193971871911764 -12.494636930754558 0 0 1
1467 1 9.329383091102338 -11.840934958933373 -12.869498185081019 0 0 0
779 1 9.086775916869586 -9.316540485869316 -12.827682834531245 0 0 1
1458 1 11.427978239973745 -12.2904946440347 -8.465939843276068 0 0 0
1463 1 10.882260036592298 -9.793333227351285 -8.405841779115315 0 0 0
1857 1 13.39979735620039 -10.230911005471853 -8.134218590266615 -1 0 0
778 1 9.793249285129717 -14.116880998703767 -12.79524242264789 0 0 1
1464 1 9.367476757888388 -14.294427759677115 -8.85466933927377 0 0 0
1848 1 14.136847066876426 -12.502116346920126 -12.084450573291907 -1 0 0
1456 1 13.785020637298386 -12.547154258728444 -8.149265755060476 0 0 0
1209 1 13.916321697090632 -10.038094129382069 -12.124248415979745 0 0 0
1743 1 -10.403453703149975 -8.565649455210863 -11.526629320931043 0 0 0
1756 1 -12.739830670233596 -7.953520231358751 -11.95310912194817 0 0 0
1655 1 -9.968417527202263 -5.0642950954589345 -9.51702984498521 0 0 0
1656 1 -10.767900595727411 -5.972086466909381 -11.554667433061475 0 0 0
1657 1 -13.174062729610576 -5.590797591597813 -11.870655999135092 0 0 0
1755 1 -12.062205799573446 -7.1960614982870235 -9.745317235377387 0 0 0
1766 1 -12.385312387261926 -4.695778838271005 -9.734793061969032 0 0 0
1820 1 -9.639488620708262 -7.490009523591475 -9.306163857689224 0 0 0
1534 1 -11.103139883818864 -3.4532101982590913 -11.620285026613635 0 0 0
1754 1 -13.804227962629458 -5.729263192556777 -7.971329426402954 0 0 0
1821 1 -13.290044119638566 -8.16503902352126 -7.755094434517422 0 0 0
1765 1 -14.274920658905758 -3.337354940938477 -7.98318076919763 0 0 0
1670 1 -13.632430356881502 -3.2234517182679845 -11.886702046774749 0 0 0
1519 1 -8.78992939057228 -4.027541068040449 -11.321328774873017 0 0 0
283 1 -9.144986697818396 -7.429534291927597 13.268363159423853 0 0 0
1739 1 -4.9740180616660155 -8.309361971719994 -8.675634450600482 0 0 0
1753 1 -8.3957017276526 -6.527445918549434 -11.265260824761095 0 0 0
1628 1 -4.554560020533771 -8.24322886465997 -12.523767220954863 0 0 0
1740 1 -7.447099381709589 -8.011363915222649 -9.001494596046037 0 0 0
1640 1 -6.0097964449274865 -6.935221227395649 -10.848264356151143 0 0 0
1518 1 -4.022350292897947 -4.8335899466972645 -10.536176452293201 0 0 0
1641 1 -4.925741208214479 -5.767017780206896 -12.650952322321757 0 0 0
1654 1 -7.717000929488257 -5.598171399582615 -9.038060619480568 0 0 0
1531 1 -6.363154823411277 -4.3870167329347005 -10.968178122636258 0 0 0
1517 1 -5.373686840421762 -5.858726744651392 -8.667969751975336 0 0 0
1742 1 -6.828521361752507 -7.907887607887328 -12.969428511714238 0 0 0
1627 1 -3.671171428930318 -7.257176792875758 -10.430166500009296 0 0 0
1642 1 -7.257430242500019 -5.394165185934515 -13.185487213756904 0 0 0
1529 1 -5.685171847973802 -3.331868917508894 -8.851448164926007 0 0 0
150 1 -5.112996184208088 -3.430670385762319 -12.911156954014793 0 0 1
1516 1 -3.291891898016223 -3.8432552027195186 -8.419517429135015 0 0 0
1626 1 -2.080792604052146 -8.779704019626774 -12.253378740668172 0 0 0
255 1 -2.724146269686873 -3.6522679005185488 -12.537616980599326 0 0 1
1639 1 -2.891674840645978 -6.3096284004034935 -8.18515160483625 0 0 0
1505 1 -2.5030903986655098 -6.295314921562568 -12.267976391268713 0 0 0
1625 1 -1.2461051494529585 -7.806723653387502 -10.12711383730906 0 0 0
1503 1 -1.5927647839911447 -5.25935775253166 -10.143825132405253 0 0 0
1501 1 0.7673583446101055 -5.856078023254968 -9.665811457813657 0 0 0
1624 1 1.2791524767032492 -8.212599993693992 -9.691308798494113 0 0 0
1491 1 -0.07163793336258273 -6.829574218026347 -11.975743731830322 0 0 0
1371 1 -0.4375273553269601 -4.293158779808019 -12.062708697962266 0 0 0
1502 1 2.0461859053546814 -4.806101365829441 -11.512967614077338 0 0 0
1514 1 0.3655896699919978 -3.4592050437535526 -9.791708375363351 0 0 0
1513 1 -1.0003532861510998 -4.284387990885941 -7.970975886490152 0 0 0
1637 1 -0.4677776457147811 -6.859115415808419 -7.947751518727256 0 0 0
1357 1 2.4206337055772114 -7.12154183869366 -11.61031337049657 0 0 0
1489 1 3.6799443732991737 -8.606313836141311 -9.445676908125446 0 0 0
1369 1 2.811826719136752 -3.6908105721590356 -9.325795089715795 0 0 0
1346 1 4.806441317679363 -7.596982699024031 -11.279573840712883 0 0 0
1356 1 3.1862568688245414 -6.1782710394185685 -9.405538381397243 0 0 0
1225 1 4.416953998465667 -5.108497818118924 -11.197146085036596 0 0 0
1368 1 5.217263170958995 -4.195962311549019 -8.929707988309044 0 0 0
1354 1 5.497585978585052 -6.56888178498248 -9.178194568836226 0 0 0
1345 1 7.344017176034013 -7.935808510168079 -11.018471336808009 0 0 0
1355 1 6.8902200556194675 -5.517822645914338 -11.033766192970901 0 0 0
1223 1 7.644261340799373 -4.55680096972627 -8.71091851059516 0 0 0
666 1 6.214059729756629 -6.643980607103514 -13.01083147243589 0 0 1
508 1 5.80719051128977 -4.2034663405733514 -13.05584049015259 0 0 1
1215 1 12.206774957879128 -8.927383228598043 -10.285067936851828 0 0 0
1353 1 7.985470037407916 -7.0054453814121125 -8.771147264889574 0 0 0
652 1 8.164728070122996 -4.642679647504602 -12.888380617984055 0 0 1
637 1 9.907723238721116 -8.370539365233821 -10.797773886267631 0 0 1
1335 1 10.426730891416772 -7.408614840444675 -8.539380108961577 0 0 0
1216 1 9.257338237021214 -5.918916796778511 -10.691794038851398 0 0 0
1343 1 10.072461121955188 -4.998422181395188 -8.49422972412797 0 0 0
1103 1 11.728997442518233 -6.383492979001454 -10.48275182990381 0 0 0
1669 1 11.34425390145699 -3.989573141804632 -10.38881856671369 -1 0 0
638 1 11.06571493797039 -7.343242136027343 -12.586002765765192 0 0 1
1222 1 10.611157121361556 -4.8821199001309274 -12.590139697712512 0 0 0
1211 1 13.043146682528699 -5.236600697001425 -12.28646776729997 0 0 0
651 1 8.702614112491114 -6.931445917978055 -12.8864578834602 0 0 1
1333 1 12.489930141414542 -5.361532049681093 -8.201671770429654 0 0 0
1214 1 9.01740859328344 -3.4203798583293867 -10.763469481525021 0 0 0
1461 1 12.985659269144625 -7.753145949062632 -8.207763241713181 0 0 0
765 1 13.457889691534186 -7.680900650251493 -12.166778294170614 0 0 1
1331 1 14.126728714763237 -6.636775286500069 -10.160617928734549 0 0 0
1830 1 13.691707023439891 -4.170483327905501 -10.181445308544022 -1 0 0
1668 1 -12.852961712881557 -2.2220604924619973 -9.76126599063341 0 0 0
1546 1 -10.399573817352543 -2.519153636276327 -9.617018977627183 0 0 0
1548 1 -11.496324381859502 -1.155665552369049 -11.718246682805374 0 0 0
1414 1 -12.060031223051222 1.2659616900162174 -11.775690372038511 0 0 0
1559 1 -10.794642599139683 -0.2440301060983927 -9.585155796481748 0 0 0
1560 1 -13.290886547701968 0.32656943436933616 -9.890187452170064 0 0 0
1412 1 -9.530559681704535 0.944645720270822 -11.504793769683145 0 0 0
1547 1 -9.043219033784364 -1.4114626518028217 -11.391264809297892 0 0 0
624 1 -14.030072764857687 -0.8089268453776217 -12.022823481318236 1 0 1
1558 1 -12.503590663213526 1.3174682573189482 -7.755818974118831 0 0 0
1425 1 -11.258204244664858 2.2893753947702162 -9.67021908465137 0 0 0
1424 1 -8.788260983671663 1.9229466258342942 -9.427672314202159 0 0 0
1679 1 -12.202367936567422 -1.0519858788312977 -7.649766131126491 0 0 0
1532 1 -8.07874132873072 -3.004882481818873 -9.08724527672499 0 0 0
1545 1 -8.392957949115178 -0.5593599720331426 -9.234174943856438 0 0 0
1386 1 -4.271562803217558 -2.352166355670226 -10.593533631103046 0 0 0
1398 1 -4.714133567389288 0.1238406219396424 -10.732328014487209 0 0 0
1400 1 -6.707897476857662 -1.944915385852589 -10.967231628779663 0 0 0
1411 1 -7.119889625676773 0.4948936219769564 -11.082289763766575 0 0 0
1544 1 -6.011917234316286 -0.9950119125926022 -8.736627480998859 0 0 0
1410 1 -6.35949272794653 1.434559136308284 -8.916121489385368 0 0 0
1409 1 -4.014758655196591 1.0007992382023225 -8.427354419101931 0 0 0
136 1 -5.472651660970465 -0.8639167908762957 -12.854090295754435 0 0 1
137 1 -5.969660014729643 1.6033805478324918 -12.813771850361146 0 0 1
1397 1 -3.713191754770243 -1.40414292665079 -8.376436221306312 0 0 0
1399 1 -3.59166120156957 1.2124434079319197 -12.6156285575934 0 0 0
1533 1 -7.529599128768424 -3.049252970595896 -13.116520718377112 0 0 0
151 1 -7.822905417728159 -0.5155966539766013 -13.217219671497046 0 0 1
1413 1 -8.32087232354444 1.8954055550877609 13.25395679145105 0 0 -1
241 1 -3.161109929537986 -1.2729423208881698 -12.529203278726108 0 0 1
1264 1 -2.6745687149857584 2.15213551858138 -10.501132361455339 0 0 0
1527 1 -2.0219763144916456 -2.823440375476814 -10.325954179767443 0 0 0
1383 1 1.5677380837097736 -2.4300374657994315 -11.498263499514406 0 0 0
1384 1 -0.7668650960796963 -1.7303934238855092 -12.289497842244959 0 0 0
1250 1 -2.3123426447450637 -0.31776307884211796 -10.318940996586116 0 0 0
1263 1 -0.14965310225942297 1.6871528309344601 -10.084000903696063 0 0 0
1395 1 0.04303821145754405 -0.9048166533786297 -9.952729389777101 0 0 0
1248 1 1.2710534037076453 0.21444317340218966 -11.846168006341586 0 0 0
1251 1 -1.1738250681049767 0.7247353980169269 -12.267877509075094 0 0 0
1272 1 2.208215205712344 1.3213929290559356 -9.826222375803333 0 0 0
1541 1 -1.502191874237301 0.6382457524442753 -8.301736717211995 0 0 0
1394 1 -1.4007601020884906 -1.7362812792531663 -8.150839409482394 0 0 0
1261 1 0.9211409015286627 0.08791465971965629 -7.967846934204753 0 0 0
1224 1 6.467242488532017 -3.07422302223738 -10.7968910091245 0 0 0
1236 1 3.949868626292224 -2.6831179446254865 -11.236794420171943 0 0 0
1246 1 2.704909006208384 -1.1559640728167988 -9.90158877828023 0 0 0
1235 1 5.4818907358626365 -0.7765667443257449 -10.349095456748293 0 0 0
1247 1 3.8167175497373815 0.02830151401304981 -11.864403332510049 0 0 0
1116 1 6.781791543018754 -0.37456985525081876 -12.120644192732938 0 0 0
1126 1 4.54840165841769 1.1175268210993359 -9.309049249989727 0 0 0
1381 1 4.551267018237903 -1.8590803754314553 -8.626889357660026 0 0 0
1036 1 5.764173260581289 2.077870353944041 -11.71801884960396 0 0 0
1237 1 5.072371220328426 -1.79972993021107 -13.024982398460462 0 0 0
1115 1 7.214304971307653 0.9657852008712045 -9.797418610306782 0 0 0
494 1 7.6414498765316505 -2.3186366590049055 -12.918872353614246 0 0 1
1234 1 7.056027115748867 -2.2207146610376594 -8.195172160222274 0 0 0
1245 1 6.204401131612338 0.006152434790708483 -8.022300062583327 0 0 0
1138 1 5.663535862510917 2.473883348281431 -7.834021500784681 0 0 0
1233 1 7.994711559661775 -1.306720863754288 -10.10831661604866 0 0 0
1128 1 3.2659581803058995 2.4443744604886195 -11.65124401345565 0 0 0
1139 1 2.888089813811808 2.290075732356451 -7.820781475977639 0 0 0
1341 1 11.956465535118197 -2.9333481714961707 -8.174166460145702 0 0 0
1213 1 12.639481244763063 -2.8239456011898465 -12.418012309396854 0 0 0
1212 1 9.6411001243911 -2.5254740785040735 -8.47885701253805 0 0 0
1108 1 9.215528924960767 -0.4795260989149899 -11.955314791808592 0 0 0
1106 1 9.768391766599995 0.45628654249586376 -9.577118012147144 0 0 0
1100 1 11.624072100844474 -0.41925174065495163 -8.404055533409661 0 0 0
1210 1 10.92686364384661 -1.444133947575697 -10.497012969920414 0 0 0
1019 1 12.212433645042568 -0.3533052176382778 -12.428699253125501 0 0 0
1105 1 12.895425682528211 0.603578131749023 -10.343803184046525 0 0 0
1102 1 10.815134550477056 1.4056539932717946 -11.353313711036355 0 0 0
480 1 10.339755936622938 -2.4898414377583933 -12.843927468767331 0 0 1
1029 1 8.354654051292227 1.7506579956589992 -11.700495508932107 0 0 0
1112 1 11.580537455957264 2.5098997142901407 -9.16560964723616 0 0 0
1101 1 13.510140971993893 -1.7566299672383643 -10.196832958297412 0 0 0
968 1 12.019925081296245 2.4057768258530547 -12.995008974328485 0 0 0
1561 1 14.202914939082797 1.7251424005577913 -12.196555708201098 -1 0 0
1773 1 14.135394952129845 -0.8177001098075838 -7.99762835712008 -1 0 0
1678 1 13.582186586370218 1.6362682864801172 -8.102542236479247 -1 0 0
1570 1 -13.726325199719547 2.7416890266774328 -10.13062364423306 0 0 0
1426 1 -9.964176989608962 3.3579954083270227 -11.551401463891706 0 0 0
1427 1 -12.329545625624437 3.778768840897138 -11.89155989462626 0 0 0
1438 1 -11.591860976056426 4.78257462678266 -9.82287154555269 0 0 0
68 1 -10.320108505018691 5.853559174365573 -11.682750361675714 0 0 1
1439 1 -13.949400437158104 5.285870388831105 -10.338783132783362 0 0 0
1303 1 -9.634342964685839 6.6479936384869465 -9.445497593779569 0 0 0
1291 1 -9.236634902817428 4.318642536901111 -9.48339297080772 0 0 0
1447 1 -13.231060818418698 6.186520965834516 -8.13663027357266 0 0 0
1293 1 -12.611138302739418 6.412486995742958 -12.001695232168238 0 0 0
1306 1 -11.94422195017892 7.3769804047684975 -9.807975378959393 0 0 0
1437 1 -13.014764055886868 3.718216977844799 -8.01192003056329 0 0 0
1265 1 -5.142310899087976 2.4754172348305286 -10.73518436269183 0 0 0
1279 1 -7.447966589608586 2.927979212550502 -11.195894314551472 0 0 0
1158 1 -5.56823316618936 4.941572663336528 -10.970706054448275 0 0 0
1277 1 -6.827036440568653 3.8860349033060526 -9.07142655174357 0 0 0
1290 1 -7.896138650628733 5.415849551760315 -11.307541341725472 0 0 0
1288 1 -4.8954840775382955 6.029556833823582 -8.771760277775009 0 0 0
1301 1 -7.225422471812414 6.336852145689106 -9.015866636505233 0 0 0
1275 1 -4.3160612835707415 3.5621189640815683 -8.671929702957668 0 0 0
123 1 -3.8658464037302807 3.6187938871859817 -12.704514736329141 0 0 1
55 1 -4.199688495211234 6.110023509464794 -12.619176300288489 0 0 1
1170 1 -5.945921501372062 7.4053347499341395 -11.052362784941486 0 0 0
1169 1 -3.4824879028673106 7.123206816670683 -10.524415766926976 0 0 0
1278 1 -6.343746891595929 4.048945002998222 -12.98045029759945 0 0 0
1292 1 -8.297538564522432 7.970479530200459 -11.37511438564901 0 0 0
54 1 -6.60115186199059 6.552097053160912 -13.228189061703784 0 0 1
1276 1 -3.1652967261838647 4.6126018212315305 -10.55789517111487 0 0 0
1273 1 0.49544014442931683 2.7258169047933 -8.018383907317755 0 0 0
1262 1 0.9581914829730636 2.820700242261049 -12.044745115404456 0 0 0
1143 1 -0.7909340570207437 4.140586522498216 -10.107258935909623 0 0 0
1142 1 0.45121142552042137 5.248619726105391 -12.11939200273128 0 0 0
1155 1 -1.0199661633830992 6.628405610299319 -10.096543579973842 0 0 0
1154 1 1.8067733148380913 3.8099055111710936 -10.009339378180986 0 0 0
1167 1 1.3067542373763654 6.2867001287464905 -9.947513217635874 0 0 0
1157 1 -1.8630826227202224 5.781213621714324 -12.393944149373489 0 0 0
1144 1 -1.4031270834273553 3.0451778308259403 -12.30978758290374 0 0 0
1051 1 0.11252177364415594 7.6350040142674 -12.044982490860406 0 0 0
1156 1 -2.4461817626189752 5.513793130628303 -8.310886184753116 0 0 0
1274 1 -1.9647860488075146 3.0385211608174334 -8.454799511562541 0 0 0
1284 1 0.031507453208959646 5.240032734984828 -8.105776332163563 0 0 0
1075 1 -0.38001854739017205 7.712858612680028 -7.952069572238278 0 0 0
1061 1 2.0018681275949053 7.261231218013011 -7.854382749805623 0 0 0
1076 1 -2.7701550633848253 8.040470071751527 -8.41151380130741 0 0 0
1049 1 2.616202461072417 7.320327825311077 -11.857625532100439 0 0 0
1141 1 2.915791081805251 4.870800843347036 -11.86309646321693 0 0 0
1140 1 4.209940844874621 3.5006866262494274 -9.674286522096347 0 0 0
1037 1 5.317685384355466 4.4705325284652115 -11.703569277638811 0 0 0
1048 1 3.836805747423517 6.018121651188126 -9.83682784215901 0 0 0
989 1 4.9548197878688836 6.973629836245708 -11.7471936104977 0 0 0
1035 1 7.368642497551479 6.563145359263574 -11.372488276050795 0 0 0
1047 1 6.181754305531934 5.65958557356821 -9.524494283429208 0 0 0
1124 1 6.604367104098349 3.3397645881102083 -9.757978239774014 0 0 0
1125 1 7.7895630756983625 4.260371312155884 -11.485363853918898 0 0 0
1046 1 5.690399818487899 8.08381459064469 -9.426141828050703 0 0 0
1113 1 9.04005956987796 2.888812726576246 -9.424448767271718 0 0 0
1122 1 8.59481085991627 5.365299820674567 -9.375107082206238 0 0 0
1123 1 9.984613642520879 6.206152981959265 -11.051357679181208 0 0 0
1114 1 10.370183464516925 3.8409346303987117 -11.219173327870337 0 0 0
1026 1 11.030535747010335 4.917567657715177 -8.974250280715982 0 0 0
971 1 12.413275602990305 5.757613745511412 -10.729807778059678 0 0 0
978 1 10.635772245999336 7.279112315384461 -8.863000135520121 0 0 0
1044 1 8.226631012800967 7.7067495412357925 -9.190890393916726 0 0 0
1033 1 11.25833354656365 7.21585067446601 -12.883673258842107 0 0 0
969 1 12.982739409664381 6.855916642942061 -8.522703832656457 0 0 0
1021 1 12.706160807607473 3.2596536501117424 -10.899113169576317 0 0 0
970 1 11.73513432115213 4.81372911657961 -13.033922172895988 0 0 0
980 1 8.776106996284009 7.674204789901724 -13.053580148558261 0 0 0
1022 1 9.19589089730749 5.326337490126855 -13.197878176506663 0 0 0
1020 1 13.422708387887914 4.317286381050112 -8.633556831552905 0 0 0
945 1 -14.338456783221618 7.946964304223885 -10.265678157787928 1 0 0
943 1 13.696712333186197 6.875129785123294 -12.44487076913439 0 0 0
467 1 14.130719355178377 4.24509670579779 -12.520110363054439 0 0 1
1317 1 -12.481072138037044 9.923585302217925 -9.866888766188405 0 0 0
1316 1 -10.294278796599492 11.824179657267424 -9.543511749015925 0 0 0
944 1 -12.831201169801536 12.358480321204807 -9.93360194935023 1 0 0
939 1 -13.491976874497212 11.30679689073469 -12.112697079469447 1 0 0
1448 1 -13.613738404350718 8.786753201906597 -8.139772114454484 0 0 0
1184 1 -10.114924517351618 9.520586198766816 -9.49441150860568 0 0 0
1197 1 -11.100699872044535 10.775648292101097 -11.720500119036005 0 0 0
1305 1 -10.745686961393028 8.424902099608984 -11.658015615480668 0 0 0
1196 1 -9.249212285620812 12.724201290231301 -11.394262069704613 0 0 0
1185 1 -13.099202613016343 8.848296530669627 -12.044332648123937 0 0 0
1207 1 -11.602639226960068 13.194924239397837 -11.79917537037154 0 0 0
984 1 -14.126381642066624 11.318882037487684 -8.173171043980933 1 0 0
950 1 -12.0703656771237 13.228283029179623 -7.65972045824127 1 0 0
1208 1 -14.030308583983462 13.880980597086813 -12.117630022927319 0 0 0
1453 1 -11.729794521594838 10.737964519204597 -7.793532450221204 0 0 0
1304 1 -11.322988866600376 8.33020770252861 -7.726081710539849 0 0 0
1079 1 -8.683812686466254 10.328546930973209 -11.364654850124914 0 0 0
1078 1 -5.052248554440798 8.432629509486679 -8.899832613017043 0 0 0
1065 1 -4.570515431812032 8.56963143873053 -12.799120777570383 0 0 0
1195 1 -7.958030229580157 11.339526970739096 -9.267715846598552 0 0 0
1090 1 -4.348813612900027 12.01537189820989 -10.71652222852653 0 0 0
1183 1 -6.260548732150063 9.909727294872964 -11.026594931163482 0 0 0
1182 1 -7.651935233079393 8.761874822454471 -9.226224104992948 0 0 0
1193 1 -5.611291427724577 10.904855132123702 -8.84424453781169 0 0 0
1171 1 -3.8038519472592878 9.52577723447065 -10.64791865249878 0 0 0
1092 1 -5.111521851600044 11.074844623178814 -12.896702680501878 0 0 0
1091 1 -6.811502571905935 12.279373747613244 -11.082721107342302 0 0 0
1716 1 -3.7321680806155673 13.03117571414524 -8.465650553527816 0 -1 0
1094 1 -6.112274410024964 13.345767951545087 -8.982468145010067 0 0 0
420 1 -5.42753428772016 13.402308898707767 -12.890890542664446 0 -1 1
12 1 -6.998134490085861 9.035565669529772 -13.089846370796884 0 0 1
1017 1 -3.0889734653020717 13.015495713204073 -12.615292699036873 0 0 0
1181 1 -3.187684686445804 10.608022487034335 -8.511294870680203 0 0 0
1064 1 -2.1909070340371297 8.216260651581278 -12.438713064828747 0 0 0
1077 1 -2.680336606056562 10.705709095095271 -12.63619743940499 0 0 0
1063 1 -1.4226500057313576 9.120857951934253 -10.317904719228906 0 0 0
1062 1 0.9120588373838316 8.765350698844175 -9.891325158262926 0 0 0
1016 1 -2.0861931184052747 11.538454743717564 -10.487665414557604 0 0 0
1015 1 0.5385938564542627 11.29072926999738 -10.06409697425934 0 0 0
1004 1 -0.23496851290837384 10.18097953217258 -12.211908707622033 0 0 0
1701 1 -0.6819226552733006 12.647700315081453 -12.290838913980705 0 -1 0
967 1 1.7143484272665628 12.18507542220114 -11.819593806411044 0 0 0
1702 1 -1.222010453288254 12.529955733766107 -8.253965963420086 0 -1 0
1088 1 -0.8057702420411168 10.146284924592427 -8.269386240905408 0 0 0
1003 1 2.2470287566585814 9.745111952337046 -11.929188363167553 0 0 0
1014 1 1.3026368918430773 11.976548457225393 -7.9525680050250305 0 0 0
1699 1 2.449916728956685 13.230902960216143 -9.689897265443978 0 -1 0
1700 1 0.11830697662607825 13.541030306098959 -10.018043080634053 0 -1 0
1060 1 3.3336712296333655 8.463567371475216 -9.778706183886793 0 0 0
1002 1 2.9403332722579893 10.808328521880986 -9.713377325659033 0 0 0
991 1 4.759584882869378 9.425946660116294 -11.616439503104786 0 0 0
955 1 6.546823709199684 11.501939783588933 -11.282158834040684 0 0 0
1001 1 5.317351977108492 10.428779556290445 -9.316306247663885 0 0 0
966 1 4.108677954006252 11.889269015260934 -11.604064329542839 0 0 0
990 1 7.1141770379693465 9.003650165353891 -11.300327880702335 0 0 0
965 1 4.8826504322945095 12.823189834664769 -9.377280462495158 0 0 0
964 1 7.2652697413544285 12.388009151915972 -9.026167683010172 0 0 0
999 1 7.681474289480951 10.067115580252876 -9.192765644741513 0 0 0
942 1 7.855235506011256 12.487961563031773 -13.043277455452513 0 0 0
1586 1 6.119936151614576 13.843606016204285 -11.277653490276183 0 -1 0
979 1 12.089975427898773 8.23739423111986 -10.699464197302419 0 0 0
988 1 9.695965683482589 8.642596315476373 -11.052124902106787 0 0 0
937 1 12.709873799619002 11.671374371844239 -12.448606418737716 0 0 0
954 1 8.952188483218707 11.175062094253905 -11.004545371863365 0 0 0
962 1 9.71936872237407 11.989466447962295 -8.719928747381116 0 0 0
953 1 11.535966552576058 10.706222569514514 -10.525993919258159 0 0 0
987 1 10.08569278794961 9.56072033617936 -8.774118641347673 0 0 0
940 1 10.94135374235253 13.076997175503118 -10.629465136071094 0 0 0
941 1 10.195370831195708 12.204443493501755 -12.865896471177631 0 0 0
952 1 12.257015306461009 11.651600693902088 -8.385963077458882 0 0 0
976 1 12.631964307383699 9.239595673578082 -8.55568248915321 0 0 0
946 1 10.767326787385182 9.702828205432644 -12.72024117191543 0 0 0
977 1 13.279782871323048 9.299779712107577 -12.489290676682206 0 0 0
187 1 8.279699748570271 10.058182689383054 -13.135583395977644 0 0 1
1460 1 8.531157239538503 13.533098447347578 -10.990685454142607 0 -1 0
1457 1 13.380290824068878 12.793960520176254 -10.329134704796731 0 -1 0
986 1 13.894215785124208 10.383531963709087 -10.367749024235167 0 0 0
938 1 -14.33968898285464 13.698525137538121 -8.158343721601103 1 0 0
1325 1 -10.74221651414768 14.263835375973953 -9.66362375077424 0 0 0
1714 1 -4.705242003746429 -14.143467232985376 -10.673344664374687 0 0 0
1206 1 -8.388434050495102 13.829179706982659 -9.218138972211477 0 0 0
1093 1 -7.9118573969930805 13.78406024798136 -13.198566867619927 0 0 0
1713 1 -2.4627838013652337 13.992472437126407 -10.462947728401735 0 -1 0
804 1 3.8148751583284497 14.313888518225399 -11.48340766657401 0 -1 1
1459 1 12.189211596615115 14.176794155154054 -12.519591560921011 0 -1 0
1582 1 11.77089512133365 13.974317466769664 -8.45544379163439 0 -1 0
1843 1 -10.507722704959624 -11.090898573411746 -7.51408098253352 0 0 0
1868 1 -11.833115664628776 -12.006523066824693 -5.693815978387201 0 0 0
1853 1 -9.77557325597381 -10.1398019493632 -5.329099159685067 0 0 0
1842 1 -9.373256421368765 -12.573054313683663 -5.344686208259078 0 0 0
1854 1 -12.271834612141499 -9.563979149311777 -5.598630863691719 0 0 0
1867 1 -13.078311624079788 -13.249847638441258 -3.804121259468028 0 0 0
1205 1 -10.20607040331269 -13.471747805458909 -7.415463556019953 0 1 0
1590 1 -13.372963413873576 -10.70227079717672 -3.8404462759049594 1 0 0
1869 1 -11.060314814188398 -11.325608031454752 -3.578678316766151 0 0 0
1866 1 -10.529780254200473 -13.696431994680898 -3.4630959509038597 0 0 0
1817 1 -9.116314561024744 -9.15252916068117 -3.1451334928421026 0 0 0
958 1 -13.804691422630913 -14.249115674439944 -5.894426022759974 1 1 0
1330 1 -14.175116011356623 -11.736483888739585 -5.95241065802935 0 1 0
1860 1 -11.526369890398913 -8.705560493899414 -3.4676925718009066 0 0 0
1865 1 -8.748702674162395 -11.498485923526886 -3.1369097199617855 0 0 0
1840 1 -5.638903287367995 -11.955327049578031 -6.761042553616416 0 0 0
1819 1 -8.518135993037923 -9.07592085799674 -7.101644857676249 0 0 0
1808 1 -8.091422635678967 -11.433464234981152 -6.924654905032736 0 0 0
1841 1 -7.0796749126358325 -13.037435170321752 -4.838408660934091 0 0 0
1806 1 -7.421900026249057 -10.607306506221398 -4.946780576343505 0 0 0
1804 1 -5.015451541202253 -10.952480441696665 -4.652216180916319 0 0 0
1818 1 -6.130314162825863 -9.407927757829023 -6.722831790263091 0 0 0
1189 1 -4.5703037943636176 -13.333640431898226 -4.699119565555433 0 1 0
1864 1 -6.215718678198259 -12.00216016313655 -2.6535731783669974 0 0 0
1326 1 -8.201126292995443 -14.03088682619727 -2.9315270354621727 0 1 0
1849 1 -4.445866950009769 -10.033760498016825 -2.397959055816157 0 0 0
1851 1 -6.69652151795124 -9.468012003464809 -2.734134742750337 0 0 0
1738 1 -3.7341501844168192 -9.929796962309975 -6.403673844791718 0 0 0
1838 1 -3.690609506168064 -12.386097984960356 -2.464459356397949 0 0 0
1204 1 -7.695642308444265 -13.882559650164742 -7.076462403190985 0 1 0
1793 1 -3.193633398358415 -12.412185321787724 -6.349178770405524 0 0 0
1792 1 -2.6004661759212055 -11.332978151639882 -4.264348273971583 0 0 0