LAMMPS data file via write_data, version 2 Aug 2023, timestep = 0, units = metal

1874 atoms
3 atom types

-14.184414369128856 14.184414369128856 xlo xhi
-13.720672835709067 13.720672835709067 ylo yhi
-14.14941705540703 14.14941705540703 zlo zhi

Masses

1 55.847
2 1.008
3 1.008

Atoms # atomic

1843 1 -12.716480423824397 -11.63454594388673 -10.967066552212305 0 0 0
1844 1 -10.492277035037638 -10.973926663920311 -10.039428013691094 0 0 0
1872 1 -11.357767259873249 -10.887978913226938 -12.810382636064707 0 0 0
1846 1 -12.984832819933263 -9.532733272544728 -9.468560247569961 0 0 0
1870 1 -10.388621224423732 -12.92201323206856 -11.46094073165438 0 0 0
1871 1 -13.661974470595727 -11.560636809149372 -13.657572312339873 0 0 0
1620 1 -11.779039370140913 -13.489786688808648 -9.40883491006992 0 1 0
1764 1 -12.50077556034245 -13.574815798649684 -12.36704424983586 0 1 0
1836 1 -8.964305271304733 -10.35319826697695 -11.981388934410031 0 0 0
1838 1 -11.573566515266398 -8.969123847394222 -11.329415353254277 0 0 0
1874 1 -13.789882881533464 -9.68971426614444 -12.285371875639363 0 0 0
7 1 -9.018300657217235 -12.470960370431756 -13.375461687413125 0 0 1
1867 1 -10.111731317976478 -8.505652693673984 -13.281025658669064 0 0 0
1837 1 -9.247445931781211 -8.390069760673136 -10.607335608160923 0 0 0
1842 1 -9.433078395405513 -12.98386673730421 -8.78454738231946 0 0 0
1743 1 -10.652008263442598 -9.08864944459786 -8.693295630327396 0 0 0
1847 1 -14.124879747862078 -12.058646587104015 -8.943488000063152 0 0 0
1868 1 -12.520930393173508 -9.071846066125666 14.021180761418597 0 0 -1
1741 1 -8.051347733293719 -10.493040738819902 -9.214058237041954 0 0 0
1727 1 -4.541188192923812 -10.3704866235461 -11.251522907973799 0 0 0
1739 1 -5.79139926371418 -11.91124269541659 -10.03628231299399 0 0 0
1834 1 -6.797024281746771 -11.923811809462373 -12.596350438707896 0 0 0
1835 1 -6.838711044862131 -9.938153634382926 -11.171943210089303 0 0 0
1866 1 -7.609322048799924 -9.709200962598185 -13.774909440583755 0 0 0
1762 1 -8.181137790103465 -12.405215656426815 -10.705930001338293 0 1 0
1738 1 -3.441743692101051 -11.936691007558613 -9.527101150239671 0 0 0
1833 1 -4.405775898268539 -12.395097859410672 -12.71742295444137 0 0 0
1822 1 -3.0802975584940047 -10.039866774108383 -13.032331289782617 0 0 0
1823 1 -5.294763777427077 -10.428363404358034 -13.997744414346354 0 0 0
1419 1 -4.675918225284937 13.543471297162053 -8.661758542593837 0 0 0
1740 1 -5.800053399460994 -10.122396371485657 -8.413625086975184 0 0 0
1724 1 -0.06875411994824177 -11.230082446968527 -10.764121503147784 0 0 0
1726 1 -2.449715316569417 -9.65211042108184 -10.107891832371344 0 0 0
1705 1 1.5250579532069768 -10.987969823927246 -12.817433714713145 0 0 0
1707 1 -0.9645324924871641 -9.299658122042235 -12.142722664667486 0 0 0
1706 1 1.3637684312759095 -8.89710579241426 -11.381318074219763 0 0 0
1540 1 -0.11153478076656498 -9.00130429889091 -9.233433672468571 0 0 0
1725 1 -2.142881354275838 -11.982638892353101 -11.707966117314458 0 0 0
1820 1 -0.8003872924859383 -11.455033364882869 -13.641082978121965 0 0 0
1538 1 2.417152476082517 -9.096414517624645 -8.975586942540463 0 0 0
1723 1 0.27099243028511566 -13.347217970702882 -12.303453580394276 0 0 0
1736 1 -1.3370053098182524 -13.67702165868748 -10.18016021141262 0 0 0
1405 1 1.163243134106267 -13.57724560307679 -9.838914159173527 0 1 0
1831 1 -1.8940626308905504 13.496096494982687 -13.216002978748188 0 -1 0
251 1 0.44672288519931236 -8.906981872336303 14.14501227870282 0 0 0
1722 1 2.6473376375225115 -11.062407528464595 -10.418795448880033 0 0 0
1556 1 1.203603397818295 -11.614062128571216 -8.59982642176779 0 0 0
1721 1 2.692830377748969 -13.061806623537167 -11.750209320711793 0 0 0
159 1 2.7826698378130814 -8.299944985659288 -13.471030307172079 0 0 1
1536 1 4.8166954414421 -10.486686638238226 -9.553182230747087 0 0 0
1702 1 6.174252971641003 -10.047894687177093 -11.45259669521638 0 0 0
1703 1 3.800176624231579 -10.405004315639573 -12.368545847753722 0 0 0
1720 1 4.802633338099344 -12.500230334178221 -11.016469543956658 0 0 0
1534 1 7.167930212237739 -11.712809822052499 -9.981042953270922 0 0 0
828 1 6.221299147721403 -11.88413558096253 -12.94648213385602 0 1 1
1681 1 7.6015897532297 -9.426745652062408 -13.444078444928223 0 0 0
165 1 3.972729600978976 -12.493935256860064 -13.647669258647241 0 0 1
1554 1 3.667190033097466 -13.000124188598345 -8.986100899743619 0 0 0
1704 1 3.8069221800600737 -8.424591465689684 -10.933416364667075 0 0 0
1535 1 7.133150307511325 -9.860984809013408 -8.731347046806706 0 0 0
1683 1 5.059727223077644 -7.939275642867711 -12.82123092703051 0 0 0
1513 1 5.99022779754657 -7.971695680708384 -10.088384609173863 0 0 0
1511 1 8.62059859788408 -9.290224032690976 -10.587177118789626 0 0 0
1509 1 10.87430515885832 -10.700088662275375 -11.179851243254614 0 0 0
1531 1 12.02193006246327 -12.682234947487212 -9.764379037358601 0 0 0
1679 1 12.429942114817699 -10.133048793720413 -13.215291379171404 0 0 0
1700 1 8.638461452492948 -11.525640035317432 -11.994339899456833 0 0 0
1507 1 11.142754503844909 -12.68319848629145 -12.508122043931877 0 0 0
1508 1 13.207357148614047 -10.121106380693409 -10.300043353004458 0 0 0
1532 1 9.64266802386387 -13.278116620527825 -10.59697321101714 0 0 0
1719 1 8.739029156162022 -13.39254627490004 -13.41841247128534 0 0 0
1699 1 9.96546506898024 -10.90232449335618 -13.991736559975692 0 0 0
1845 1 13.446167690177411 -12.128769483650588 -11.651512500978559 -1 0 0
1533 1 9.45655267575427 -11.263436532678234 -9.262708242293453 0 0 0
1510 1 10.75594603445133 -8.761552863294192 -9.705446155621534 0 0 0
1680 1 9.950596423306457 -8.911602725348528 -12.460571060761989 0 0 0
1282 1 12.92282345032011 -8.104483375290602 -8.914320072148081 0 0 0
1485 1 12.214929466944078 -8.383477453368878 -11.636750588106061 0 0 0
1869 1 -12.516028638700181 -7.051485174885534 -12.826192147914565 0 0 0
1827 1 -10.325358998967218 -6.4846627962887675 -11.88913416257432 0 0 0
1828 1 -10.47892391528861 -4.537393189938959 -10.432218149126683 0 0 0
1829 1 -12.652216528917752 -5.19171610832583 -11.358984676658766 0 0 0
1863 1 -11.408329221135663 -4.603015571515153 -13.330377309192912 0 0 0
1839 1 -11.712618813027133 -7.0939788710035865 -9.934957607622795 0 0 0
1860 1 -13.837711888997953 -3.1625265711536628 -12.693364026309881 0 0 0
1731 1 -9.480331383727659 -6.5785071805438795 -9.007239465077175 0 0 0
1816 1 -12.891533277219068 -3.1647415363561784 -9.92824887930633 0 0 0
1814 1 -9.127637477391271 -3.9782385543842516 -12.480337112734144 0 0 0
1862 1 -8.890070260532955 -5.880194114372894 -13.810526931816753 0 0 0
1859 1 -11.58966848357858 -2.5955541228235486 -11.932143696624223 0 0 0
1864 1 -13.627806614516649 -5.30958431064057 -14.135469114943325 0 0 0
1715 1 -10.59083301882384 -2.5647700428726576 -9.028665551246569 0 0 0
1840 1 -13.938364551686485 -7.600066020419625 -10.965918652051329 0 0 0
1841 1 -14.090817194749384 -5.6508939235517825 -9.271592979885586 0 0 0
1824 1 -5.48311408340472 -8.413165436287764 -12.266054609631304 0 0 0
1728 1 -4.6461772589136405 -8.236755913965366 -9.372790055679925 0 0 0
1709 1 -3.408321877682429 -7.848451418889812 -11.403640182891394 0 0 0
1711 1 -5.7458846116232145 -6.003751281241084 -10.84082092974569 0 0 0
1713 1 -8.276135394216602 -4.017791236831659 -9.540200919886214 0 0 0
1825 1 -7.894676157397384 -7.755569907126136 -12.347175941353312 0 0 0
1729 1 -7.0499106952815085 -7.983685199117784 -9.860307633198586 0 0 0
1826 1 -8.150133869946348 -5.876136169769223 -11.079206961112014 0 0 0
1813 1 -6.6543094521477455 -5.412268367840497 -12.944463004578068 0 0 0
1691 1 -4.481240498701645 -3.6997948623248735 -11.052612496840306 0 0 0
1712 1 -5.864148774012987 -3.862301806590901 -8.98686214928714 0 0 0
1693 1 -6.971149062091245 -3.5098433807472045 -11.46954620701349 0 0 0
1811 1 -4.311970779332977 -5.9974322251929 -12.810227841881975 0 0 0
1710 1 -3.474379233275233 -5.654499991598504 -9.860488818664614 0 0 0
1801 1 -5.383721659454984 -2.9127063695131934 -13.297284164258006 0 0 0
1799 1 -2.995040484993691 -3.5534150401513305 -13.227809862424522 0 0 0
1708 1 -1.1996102557295458 -7.25824687314901 -10.770432786403916 0 0 0
1809 1 -1.9289628851592937 -7.5500301317995415 -13.494012213946021 0 0 0
1689 1 -2.117458402461196 -5.502065586943095 -12.015203281777978 0 0 0
1687 1 0.3583611443578416 -6.938605690590107 -12.500057095129401 0 0 0
1665 1 1.547530866877981 -4.528134310580601 -13.173998983070607 0 0 0
1688 1 0.13884217580813818 -4.806231451500892 -11.187230061623012 0 0 0
1517 1 1.100205802252768 -6.706401139006411 -9.777046610808007 0 0 0
1690 1 -2.0170696578546323 -3.0114125867913 -10.41312035291358 0 0 0
1519 1 -1.2471188029670355 -4.870325728365778 -8.980119253186523 0 0 0
1686 1 2.4522962688592784 -4.5065542853036025 -10.297697701543807 0 0 0
1797 1 -0.6845470149217086 -5.264124107731586 -13.985647099632256 0 0 0
1685 1 2.5171137121090936 -6.405462424851099 -11.988250118074424 0 0 0
1667 1 -0.6646595696631614 -2.9531308257156432 -12.483276124750477 0 0 0
1682 1 7.388677700106953 -7.526814458223027 -11.912806135871609 0 0 0
1491 1 4.996579720933035 -4.176280989951092 -9.79197575811934 0 0 0
1515 1 3.604473622118441 -6.622126775640918 -9.423569998980966 0 0 0
1663 1 3.8061369297926433 -4.143999462037563 -12.351592485853887 0 0 0
1684 1 4.836669637389491 -5.9685069270792 -11.293181160023721 0 0 0
1489 1 7.201321162689091 -5.562684971677022 -10.560679008086126 0 0 0
1662 1 6.254029154917141 -3.513046081865463 -11.68566657625001 0 0 0
1660 1 6.308003624447963 -5.385755921010752 -13.193826890761411 0 0 0
1490 1 7.1660867229455185 -3.6829194881849325 -9.109263368915542 0 0 0
535 1 7.733875465066983 -3.084685475999134 -13.702322694282115 0 0 1
261 1 4.020524568869149 -5.875135306044804 -13.935521234272231 0 0 1
1512 1 8.364980093651592 -7.389211989305993 -9.076645064137647 0 0 0
1464 1 11.073717371535349 -4.435794147036269 -11.472446150384538 0 0 0
1486 1 11.910454340196672 -6.35707056314357 -10.249026310279515 0 0 0
1487 1 9.730966104039616 -6.883843789516112 -11.061455763609533 0 0 0
1488 1 9.574634159016018 -4.974459146417345 -9.725950163119018 0 0 0
1659 1 11.118036080913924 -6.347047663874783 -12.898937629429202 0 0 0
397 1 8.777008124527757 -5.0254764303288795 -12.335180126338107 0 0 1
547 1 12.457425264408958 -3.90326939348995 -13.498025586942049 0 0 1
1865 1 13.27418964075429 -3.732398177189218 -10.707543787652064 -1 0 0
408 1 8.790026347324673 -6.99967701447682 -13.699197323628491 0 0 1
1462 1 13.326789269937759 -5.653121347791641 -12.10491105460596 0 0 0
1873 1 13.582165270726978 -7.638913359425728 -13.580839685888506 -1 0 0
1466 1 8.614918905869978 -2.9926732099989515 -10.914351076685275 0 0 0
1260 1 11.978924830526832 -4.551025383956995 -8.746699585602094 0 0 0
1815 1 -9.2999047715129 -2.086077682461273 -11.049071767794498 0 0 0
42 1 -10.064750507370427 -2.1335645517543327 -13.78410501703867 0 0 1
1804 1 -10.262370750416883 -0.19351091895855888 -12.2480619218116 0 0 0
1817 1 -11.61135217816414 -0.7566234398736054 -10.292029800808486 0 0 0
1861 1 -12.55950056799246 -0.7007005832621278 -13.128572509039726 0 0 0
1805 1 -10.324795116237812 1.8142959583917104 -10.909031737777694 0 0 0
1855 1 -12.560673520893372 1.0627325163446741 -11.633744196067584 0 0 0
1695 1 -9.447439475971416 -0.24350777803958046 -9.478585907434095 0 0 0
93 1 -11.200377684328988 1.727585290852197 -13.554358879407298 0 0 1
1793 1 -8.964778465317101 2.3269782034250746 -12.804115165187413 0 0 0
1818 1 -13.839711276170627 -1.2566443098518505 -11.170751870865164 0 0 0
1697 1 -11.789514054781598 1.1562831898096047 -8.88176545971354 0 0 0
1806 1 -13.986854419801086 0.69592825243625 -9.665378334550997 0 0 0
1857 1 -13.56805613932702 3.193622985573615 -12.929617191847205 0 0 0
1807 1 -12.75026211926162 3.0781753909247094 -10.223061564677806 0 0 0
1692 1 -4.7019703081349675 -1.3202716359660585 -9.46663387993279 0 0 0
1802 1 -7.813611587643121 -1.5686803494153185 -12.882506072067208 0 0 0
1694 1 -7.071967196679243 -1.5062628107268186 -10.131841549135116 0 0 0
1803 1 -8.069957075987487 0.29440277650036784 -11.384284585917571 0 0 0
1671 1 -5.58660656984102 -1.0589268368417617 -11.824774244268578 0 0 0
1789 1 -4.373462873410766 1.405572409131473 -12.445276425330979 0 0 0
1672 1 -5.799700512053873 1.059035171245414 -10.62071133750883 0 0 0
1790 1 -6.602625493278792 0.9778943031722704 -13.17268206419672 0 0 0
1673 1 -8.066135327313525 2.2298266547908057 -10.046670685370211 0 0 0
1670 1 -3.332138092041939 0.8602590100474874 -10.265673433069892 0 0 0
1788 1 -4.303289481994975 -0.5397947445056577 -13.813292492939427 0 0 0
1669 1 -3.1646336461351368 -1.2293666616034784 -11.722846195507715 0 0 0
1791 1 -6.754857562717937 2.968319222546704 -11.8833033196285 0 0 0
1478 1 -5.997137838939107 2.9586696841663915 -9.179582118910696 0 0 0
212 1 -2.866983757537735 2.864750130308934 -13.674123221506715 0 0 1
1501 1 -7.144986283234221 0.3502381137309616 -8.594623956328926 0 0 0
1476 1 -3.4694574065371935 3.1035147211841014 -8.440467149309033 0 0 0
1495 1 0.16016368494997657 -2.5707833658585137 -9.503355805950711 0 0 0
1666 1 1.524138302820802 -2.5740768884350445 -11.630061524705727 0 0 0
1668 1 -0.9409713678335745 -0.7311692640092353 -10.964343582917824 0 0 0
1787 1 0.4560981909403221 -0.6542205308739923 -13.029139491078832 0 0 0
1472 1 1.3692611670472665 -0.1015519590983498 -10.070773236288147 0 0 0
1649 1 -2.019849163603391 0.8791779083739861 -12.427956045597908 0 0 0
1648 1 0.32536903315175536 1.4676775535555588 -11.586100846562886 0 0 0
1627 1 1.7060826268822034 1.9567410313062474 -13.498250650498287 0 0 0
1474 1 -0.9152477231927438 1.386558256130174 -9.459577218872784 0 0 0
1448 1 2.5399693114091626 1.971912806931396 -10.708050409968488 0 0 0
225 1 -1.8504554219717484 -1.342695333237284 -13.92634379497403 0 0 1
1497 1 -2.3203917045140603 -0.9243761579443248 -8.923529125308978 0 0 0
1493 1 2.4007700915985453 -2.200958720140079 -8.889499320091122 0 0 0
1646 1 2.6901254298656063 -0.1713835108485675 -12.21354337086632 0 0 0
1645 1 2.98096720223635 -2.196133441430206 -13.749256816935613 0 0 0
1664 1 3.80453980178363 -2.1487070158793955 -11.084375464854428 0 0 0
1468 1 6.135566926681193 -1.6507703393786688 -10.304759516843012 0 0 0
1470 1 3.846598904356135 -0.3147661474212988 -9.513324126932964 0 0 0
1644 1 4.961555050244698 0.28161663693978944 -11.592459821381164 0 0 0
1444 1 7.483774977355914 0.6454864333089745 -10.772782465763392 0 0 0
1642 1 7.507241047061893 -1.151347023558973 -12.222051900569962 0 0 0
650 1 6.516563212863858 0.8960773535312239 -13.51895597982636 0 0 1
250 1 5.2890763799502345 -1.5498139664756287 -13.056083729815647 0 0 1
1625 1 3.9369285238540392 2.329920335511602 -12.818613447257587 0 0 0
1446 1 5.2399536583580115 2.1496081188948626 -10.079781167764505 0 0 0
1469 1 6.028789938605193 0.24107611111546845 -8.890147628483653 0 0 0
1624 1 6.271252417016193 2.8199951198963653 -12.113198597500068 0 0 0
1445 1 7.324207441461869 2.7555966822153124 -9.323520226974413 0 0 0
1641 1 9.99694697569564 -2.587394069341638 -12.85013635885788 0 0 0
1467 1 8.355453479637838 -1.1332807824457767 -9.36022855980127 0 0 0
1465 1 10.839633787552366 -2.4478686093676245 -10.081245107695906 0 0 0
1440 1 11.194610686952338 -0.08449394466846982 -13.348457029520068 0 0 0
1441 1 12.007966512226702 0.05429666305240666 -10.490352828860331 0 0 0
1442 1 9.84239429073822 -0.5772793903049589 -11.40584068459116 0 0 0
1443 1 9.620724136520437 1.376450697491478 -10.025299304926733 0 0 0
1623 1 8.848487073852983 1.3335600381266914 -12.718417334020621 0 0 0
1463 1 12.185591753665214 -1.8882095176886047 -12.087271853565106 0 0 0
1422 1 11.08503292039525 2.033863342394005 -11.97773071837073 0 0 0
1238 1 13.035796648352306 -1.8488996688243198 -9.348328925005514 0 0 0
1420 1 13.439104978759019 0.6285903228477228 -12.39600442375842 0 0 0
1220 1 11.779323030946966 2.0776302070957744 -9.066162551219714 0 0 0
1622 1 12.52814863324815 2.3995570401622714 -13.776228569697285 0 0 0
1421 1 13.39382895167845 2.6065480789785553 -10.993871254207583 0 0 0
1240 1 10.61969900592172 -0.4497604173502179 -8.543310186194113 0 0 0
1856 1 13.601344746480386 -1.3654328180210449 -13.938578423066796 -1 0 0
523 1 8.833105616029322 -0.5910759063020254 14.138478551668102 0 0 0
1794 1 -11.392376325725277 3.621201078735645 -12.076931130454986 0 0 0
1782 1 -10.236260963212349 6.240967828344889 -12.483066163257492 0 0 0
1795 1 -11.535600105167482 5.481342532351949 -10.525913778322339 0 0 0
1655 1 -9.266567518392957 4.355443707363484 -11.270528701388308 0 0 0
175 1 -12.54472666804203 5.5821836440010415 -13.393618269272842 0 0 1
1675 1 -10.54132853321256 3.5556999672509413 -9.41767338300869 0 0 0
1784 1 -12.663543928002321 7.4619268235199065 -11.881567850256213 0 0 0
1656 1 -9.35178865871195 6.225939921260842 -9.791129565841015 0 0 0
1853 1 -13.747339664789568 5.009442461661461 -11.43941201628823 0 0 0
1657 1 -11.772543224246567 7.523142637622868 -9.15280491220512 0 0 0
174 1 -11.31440257664354 8.158777748537364 -13.789471145522484 0 0 1
1783 1 -10.38834193571919 8.1747174013063 -11.07987842622277 0 0 0
1677 1 -12.965598773817959 4.8878133803845 -8.66731770868233 0 0 0
85 1 -10.038119826058548 4.254899801285209 -13.932281438394483 0 0 1
1195 1 -13.904499604919051 6.888798499303483 -10.088473057973506 1 0 0
1773 1 -9.052345862584442 8.849416202854332 -13.004649757153896 0 0 0
1778 1 -5.370882876598278 3.563525997470599 -13.71818805088456 0 0 0
1651 1 -4.587987120639699 3.2948906672534726 -11.039314877887703 0 0 0
1781 1 -7.96021218722075 6.826518405697193 -11.723633342886371 0 0 0
1652 1 -4.714741140339713 5.284494091076258 -9.759564196760724 0 0 0
1653 1 -6.9256553152367815 4.832408664030567 -10.363871179194046 0 0 0
1768 1 -5.486744766211567 5.504609872330672 -12.263999981492553 0 0 0
1633 1 -5.678298258673237 7.492718803909433 -10.852575115432648 0 0 0
1769 1 -4.379063992044587 8.192399229445943 -12.733237469996034 0 0 0
1779 1 -7.714922858997104 4.821936733248467 -13.043533458884571 0 0 0
1654 1 -7.114054608176958 6.81896616453475 -8.987652487743226 0 0 0
1770 1 -6.5582133192456356 7.386519605755538 -13.475324273513193 0 0 0
1631 1 -3.342445983320358 7.25385389493545 -10.530148664838874 0 0 0
321 1 -4.099342164336914 6.199996978223361 -14.120326763797582 0 0 1
1635 1 -8.166549563534296 8.671168717961578 -10.208115735084453 0 0 0
1674 1 -8.344461517093626 4.331145690938445 -8.579803089583374 0 0 0
1777 1 -3.041618795138074 4.963172379306123 -12.171980359776096 0 0 0
1650 1 -2.2935798178932725 2.9086304349350094 -10.545677956428852 0 0 0
1776 1 -0.6789719632581281 3.4713099623904213 -12.71589102585477 0 0 0
1450 1 -0.02006207438079599 3.7593208195376526 -9.750566735002657 0 0 0
1452 1 -2.2492263400576693 5.3886752077858056 -9.187438337339366 0 0 0
1629 1 -0.7822331034547236 5.612868210957302 -11.050346060957258 0 0 0
1630 1 -1.1173705551659356 7.861688394905887 -9.483942283913532 0 0 0
1628 1 1.476737968486404 3.9622895264237457 -11.843189443738439 0 0 0
1430 1 1.3434451647252086 6.5415599028169495 -9.923248390201364 0 0 0
1611 1 0.3410319831727353 5.695130159846769 -13.525832428451206 0 0 0
1612 1 0.3018513386931545 7.701995034002859 -12.001376472351598 0 0 0
1613 1 -1.9549997119241915 7.066612921883955 -12.907807305597647 0 0 0
1449 1 2.2655476379460424 4.294630196490232 -9.217746430004794 0 0 0
1610 1 2.6056281091121143 6.0769488192780585 -12.406276408344603 0 0 0
624 1 1.6170508857560062 8.011206237140442 -13.898408502980027 0 0 1
1626 1 3.906564419016828 4.0805243875822725 -11.400472518025238 0 0 0
1426 1 6.293930433132104 4.81028024274277 -10.665840311351774 0 0 0
1428 1 3.8470831068537876 6.025982717488617 -10.02070599694081 0 0 0
1607 1 5.255385703926212 4.662501012762096 -13.296273000727776 0 0 0
1608 1 5.037262719859871 6.645015719078035 -12.052330687776415 0 0 0
1606 1 7.429603022668637 5.4422353856823555 -12.664248855944534 0 0 0
1410 1 7.535065979771929 7.35175377477044 -11.229419211870608 0 0 0
759 1 6.409078895139057 7.277242115070134 -14.010142193200275 0 0 1
1427 1 6.056019851353472 6.894841610773991 -9.365230612391972 0 0 0
1447 1 4.770406379595503 4.126965099997172 -8.891382774968402 0 0 0
1429 1 3.5740842598534392 8.085528610880797 -8.823438723051996 0 0 0
1412 1 5.014439284435827 8.542176800403556 -10.59234491900176 0 0 0
1597 1 3.9261682935950972 8.557067804211659 -13.18958347752812 0 0 0
649 1 7.7308744852723805 3.168405124216477 -14.040939118236341 0 0 1
1609 1 2.8452201997858424 4.237474061188035 -14.095818770396283 0 0 0
1425 1 8.458817335849265 5.2659790321052675 -9.824958899756115 0 0 0
1424 1 8.519009406951994 3.3717068474247895 -11.403006414145237 0 0 0
1205 1 12.990734236549873 4.438363958556383 -9.606797188093172 0 0 0
1408 1 9.842591160844382 5.998391888653693 -11.766267230380944 0 0 0
1423 1 10.864733068255319 3.9373978418286697 -10.386357719712695 0 0 0
1605 1 9.97002140768533 4.079499582173671 -13.07044597282258 0 0 0
1407 1 12.117548801293289 6.430377191724752 -10.825922819074972 0 0 0
1406 1 12.251148956250514 4.404673298683825 -12.301667056083406 0 0 0
852 1 11.273768150567257 6.477584864134663 -13.681220800813572 0 0 1
1409 1 9.579067557102402 7.821894629880919 -10.23261278036756 0 0 0
1595 1 8.759982978255547 7.905468281703456 -13.073637808660823 0 0 0
1396 1 13.520102187468776 6.913962652349529 -12.737209065932696 0 0 0
1207 1 10.59272941100813 5.841673173111484 -8.864346551499917 0 0 0
1398 1 11.067950535107588 8.37937457500432 -12.10018890687949 0 0 0
1197 1 11.737577726756818 8.35052576130267 -9.429344903499377 0 0 0
1748 1 -9.234304031836938 12.545955022242698 -9.977625004674447 0 -1 0
1619 1 -9.05703380508754 10.810231312640326 -11.586851474272185 0 0 0
1763 1 -10.303019851293795 12.495543158282768 -12.986267100658342 0 0 0
1774 1 -11.43353286389083 10.039794059568894 -12.355585037513125 0 0 0
1775 1 -11.577201592162158 12.078393026883479 -10.93598458808985 0 0 0
1785 1 -12.661451867888077 9.354253780136787 -10.416213531113913 0 0 0
1637 1 -10.475092097823119 10.184440620666283 -9.715625798144899 0 0 0
1850 1 -12.525760950369868 11.944930483044512 -13.733696290998392 0 0 0
1391 1 -13.776071154664782 11.358464778248546 -11.784169677810194 1 0 0
1851 1 -13.595679314309178 9.42307064226761 -13.259490039355406 0 0 0
1639 1 -12.897000948869449 11.43536476731569 -9.184689371189622 0 0 0
1621 1 -13.956619962108674 13.425869242919745 -10.41932940294475 0 0 0
1737 1 -3.3345193664613735 13.275536244375928 -11.195644306366031 0 -1 0
1755 1 -6.511222594245916 -13.61433256403581 -13.997556685103275 0 1 0
1604 1 -5.853133893365264 13.629948729945717 -11.437246998051194 0 0 0
1632 1 -3.312838455135262 9.495664862503787 -8.914283046939088 0 0 0
1618 1 -6.921227978862831 13.101609859031196 -9.426877156558819 0 0 0
1771 1 -6.860589940713835 9.258243632472059 -12.102851477753568 0 0 0
1634 1 -5.822574434510239 9.204760786311109 -9.340636343048725 0 0 0
1761 1 -8.036375646954479 13.091635303906362 -12.100710066280126 0 0 0
1615 1 -4.376269788979023 9.884178493837943 -11.190357817395894 0 0 0
1616 1 -4.735529370886253 11.704305058448757 -9.92662146642811 0 0 0
1617 1 -6.9641552555903985 11.115401728533765 -10.697711058196738 0 0 0
1760 1 -5.568645719426211 11.650620484251885 -12.44995400849308 0 0 0
447 1 -7.762265891227758 11.409577755471751 -13.533448046503553 0 0 1
1636 1 -8.3531400219816 10.621187244266814 -8.793836583678239 0 0 0
1759 1 -5.432746417373622 10.009304836122194 -14.012459288424974 0 0 0
1758 1 -2.908096568046126 8.970380885087476 13.901998049631976 0 0 -1
1603 1 -3.287298600094319 10.894405046183739 -13.043190577634405 0 0 0
1414 1 2.4755757126940097 8.388843625900062 -11.046298152450166 0 0 0
1614 1 -2.1034858388517073 9.149366174230725 -11.538315631094997 0 0 0
1416 1 -0.09277346463220759 9.862340872412155 -10.471275958396996 0 0 0
1602 1 -1.141538259070888 11.593241616706862 -12.045144398604787 0 0 0
1599 1 1.4082687122317257 10.167046945417304 -12.494883001681 0 0 0
1600 1 1.106182507819156 11.995202227561652 -11.139887509464133 0 0 0
1418 1 -2.200363770347881 11.392484468042312 -9.883969460175322 0 0 0
1601 1 -0.718172827459405 9.527271323236533 -13.410321016160204 0 0 0
1415 1 2.2098724027092587 10.591911822887251 -9.471840663254596 0 0 0
1735 1 0.37999270474159275 11.957454798286385 -13.888257520110942 0 -1 0
1593 1 2.6974230999467146 12.455137751696633 -13.20864974386489 0 0 0
1395 1 7.238355236175838 13.545414806340201 -11.45498446120614 0 0 0
1403 1 5.888672484913389 13.049035580752886 -9.62604708056951 0 0 0
1592 1 4.9499598606285105 13.02152610845961 -12.349012391923134 0 0 0
1596 1 6.199662415457386 9.029975134777928 -12.51413373316267 0 0 0
1411 1 7.204201465820557 9.127244693854848 -9.62046970469132 0 0 0
1402 1 6.109137298460642 10.988517437356812 -11.013552092370517 0 0 0
1404 1 3.4885423192248446 12.46462018359485 -10.389906413152026 0 0 0
1598 1 3.661555620858149 10.499348498687336 -11.618609869050946 0 0 0
1591 1 7.452197515757952 11.55784913143852 -12.89238012205133 0 0 0
735 1 5.054028251633088 10.971982549606551 -13.67096576098802 0 0 1
1413 1 4.764386457719979 10.575358057611474 -9.064844066324735 0 0 0
1552 1 8.23373535351439 13.647267714268288 -8.714985088157409 0 -1 0
1401 1 8.379844677392715 11.776514604180242 -10.223950893071716 0 0 0
1765 1 13.52257966955068 13.170115545228867 -13.223505622719227 -1 0 0
1393 1 12.06164711196385 12.929545712135699 -11.227940170515348 0 0 0
1192 1 13.160690514949625 11.047773352433133 -9.973852974534928 0 0 0
1392 1 12.181546477249185 10.911408879027533 -12.56339123320635 0 0 0
1394 1 9.897336294471447 12.221535298659738 -12.088681559068739 0 0 0
1399 1 10.819165418856617 10.316185676302865 -10.744206398050082 0 0 0
1400 1 8.44321248407056 9.687100171338159 -11.50636216868459 0 0 0
1194 1 10.8146668572336 12.342961884651633 -9.282709253633245 0 0 0
840 1 9.916306764894578 10.252766141980057 -13.570668349783642 0 0 1
1397 1 13.304404968747058 8.878837715274383 -11.288200423043346 0 0 0
1199 1 9.513404074019995 9.741734577002315 -8.877670356547885 0 0 0
896 1 11.15228192094889 12.757951173558041 -13.938207261420997 0 0 1
1196 1 14.143517674043274 8.937514037885851 -8.718051768998164 0 0 0
1750 1 -11.923250896011645 -11.51533048032147 -8.201004818716704 0 0 0
1578 1 -9.731563483082887 -9.234365735242594 -5.9390435088137625 0 0 0
1586 1 -11.023795532572365 -11.571479437258343 -5.432297134938672 0 0 0
1588 1 -13.567600248673308 -10.082418006844028 -4.757686139768193 0 0 0
1749 1 -9.65831303826507 -10.920079403100463 -7.296751736536002 0 0 0
1751 1 -12.10359569824144 -9.616670722057247 -6.640267714359696 0 0 0
1753 1 -13.318967464167537 -12.063548146346694 -6.239962869482178 0 0 0
1587 1 -11.18804301644235 -9.585569923543954 -3.9349870121649655 0 0 0
1237 1 -9.886977164161008 -13.371625993545166 -4.14714581810121 0 1 0
1439 1 -10.768164000873321 -13.465935725659826 -6.884964432254551 0 1 0
1585 1 -8.643403393767937 -10.988220189614099 -4.536117575309714 0 0 0
1590 1 -12.354419147908425 -12.130588943563689 -3.5231742236607175 0 0 0
1375 1 -8.976440039312697 -8.914626154700134 -3.1518074344753106 0 0 0
1589 1 -13.591606483799394 -8.077430803333453 -3.3122289471256288 0 0 0
1584 1 -8.545342817957257 -12.808186127388938 -6.129022212460175 0 0 0
1742 1 -8.373098902397853 -8.457251069299883 -7.904267998962556 0 0 0
1560 1 -3.504535524474292 -9.758309002105651 -7.631273319740992 0 0 0
1747 1 -7.093482744878374 -12.372990434093282 -7.9418695451251375 0 0 0
1574 1 -4.761498447533397 -11.95312235225317 -7.271384321309925 0 0 0
1575 1 -4.883677512651179 -10.032718853919386 -5.795607321778368 0 0 0
1576 1 -7.3277648904245485 -10.463273887613106 -6.494286209636367 0 0 0
1583 1 -6.148144267607497 -12.44155212507622 -5.211382942170509 0 0 0
1218 1 -3.9426831144849785 -11.860648719527182 -4.342423560543304 0 1 0
1373 1 -6.406138745488306 -10.263733050097438 -3.8753138900771695 0 0 0
1382 1 -7.642489073156623 -12.881766393414903 -3.2652320105176003 0 0 0
1577 1 -7.408044815850032 -8.513866041165791 -5.132087407960702 0 0 0
1582 1 -2.97914617650928 -13.62633793075123 -3.057007428528582 0 0 0
1558 1 -1.3336183490496616 -11.111118959508019 -8.45185866718494 0 0 0
1357 1 -2.651109456773735 -9.514375104824792 -4.991085575599628 0 0 0
1559 1 -1.2016437646138254 -9.005540506469071 -6.857489072338011 0 0 0
1355 1 -0.3717088468176222 -10.773125978989675 -5.4866910318698086 0 0 0
1557 1 1.059022938060762 -9.744451572261179 -7.074244535419362 0 0 0
1354 1 1.862760669973838 -9.962276630195415 -4.333820469333043 0 0 0
1356 1 -0.4953946115356036 -8.85704076036496 -4.0361466260557055 0 0 0
1370 1 -1.6558681502497912 -11.270833736267043 -3.4513347889234165 0 0 0
1573 1 -2.4281328830866684 -11.457229246710341 -6.37350625379007 0 0 0
1353 1 1.9956846344621368 -11.894363323492005 -5.935974598174859 0 0 0
1368 1 0.6360048064171977 -12.577905093904823 -3.976013954120784 0 0 0
1369 1 -1.4733121909888744 -13.273056264923156 -5.078345936848052 0 0 0
1571 1 -0.1031688861278024 -12.931539764181043 -7.154996964088036 0 0 0
1572 1 -2.362908788324054 -13.583728629598886 -8.026035272612837 0 0 0
1553 1 5.742040457346771 -12.332371858468505 -8.265440593585673 0 0 0
1555 1 3.3796769531583237 -11.120920308899567 -7.703240250140273 0 0 0
1332 1 5.65886413311053 -10.443230586529499 -6.759628209693521 0 0 0
1352 1 4.201437590234743 -11.163910209178184 -4.835741362778814 0 0 0
1158 1 6.393908124209123 -10.474985428084274 -3.965319278550215 0 0 0
1350 1 6.7088454479125375 -12.351162323985116 -5.529874806530845 0 0 0
1334 1 3.3314421547651456 -9.19729168536254 -6.229215125657581 0 0 0
1351 1 4.28424417627491 -13.08614421266895 -6.3456176809895455 0 0 0
1173 1 5.245534396458037 -13.071167626221476 -3.6622309509874196 0 0 0
1331 1 7.7985262573105985 -9.74445206378789 -5.9549874037689055 0 0 0
1537 1 4.64655449481597 -8.534916123986008 -8.120693203314872 0 0 0
1330 1 8.10525418028653 -11.708993646558586 -7.368693543309587 0 0 0
1333 1 5.374468618213321 -8.583210052509479 -5.301265638721697 0 0 0