LAMMPS data file via write_data, version 2 Aug 2023, timestep = 0, units = metal

1821 atoms
3 atom types

-13.659428468193944 13.659428468193944 xlo xhi
-13.613518467047294 13.613518467047294 ylo yhi
-14.417686701846133 14.417686701846133 zlo zhi

Masses

1 55.847
2 1.008
3 1.008

Atoms # atomic

1694 1 -10.948498386560958 -11.098942994503947 -10.940451251064014 0 0 0
1695 1 -12.303089208525906 -12.333480115415998 -12.678861781539103 0 0 0
1696 1 -12.33944462557809 -12.54335747607728 -9.802761197983996 0 0 0
1693 1 -9.48400787601389 -12.401056669032132 -12.377238907966317 0 0 0
1681 1 -9.323454018240241 -9.586043427415323 -12.299547098592644 0 0 0
1683 1 -12.044376385664679 -9.331500995627156 -12.432866214345676 0 0 0
1501 1 -9.485788471195193 -12.615900670592918 -9.605531523728171 0 0 0
1680 1 -10.839815345865542 -10.765475326651048 -13.841177305371321 0 0 0
1491 1 -12.035282477242099 -9.615549874969378 -9.57587784655413 0 0 0
1488 1 -9.307118568534737 -9.778841132975387 -9.48057820228216 0 0 0
1470 1 -10.629842142027051 -8.114668114284528 -10.902947234214494 0 0 0
1525 1 -10.862420068666076 13.513317815544001 -14.02912076933362 0 0 0
1821 1 -13.58313521033099 -10.61086938426481 -14.056719173926496 0 0 0
1789 1 -13.39017235621563 -8.081774154566318 -10.947867611676076 1 0 0
1692 1 -7.993273853802869 -11.277539481617836 -10.802451167878342 0 0 0
1820 1 -7.902402990043672 -11.023926775118657 -13.604146707812648 0 0 0
1677 1 -4.843683255573334 -8.59527426196621 -10.66563911164507 0 0 0
1679 1 -6.276891673808847 -9.768466613829087 -12.174792347278645 0 0 0
1690 1 -5.041002382176343 -11.44163528384005 -10.752967461847092 0 0 0
1691 1 -6.502661083970066 -12.528685094405615 -12.252130422256068 0 0 0
1689 1 -3.59391083729696 -12.693058208760524 -12.232973115106354 0 0 0
1499 1 -6.501786580097423 -12.902876797870508 -9.514097917386781 0 0 0
1676 1 -3.5997888936730646 -9.941280817837871 -11.988620058401626 0 0 0
1468 1 -7.822779443628578 -8.435766561668213 -10.740910268905576 0 0 0
1486 1 -6.486043275528216 -10.101310532938678 -9.269307101394586 0 0 0
1497 1 -3.690054420503815 -13.059854225480338 -9.400955399236569 0 0 0
1658 1 -4.876927129352707 -8.177669073994249 -13.40654135176397 0 0 0
1484 1 -3.4800722101654866 -10.236274103279673 -9.275172404672126 0 0 0
1810 1 -5.075698921304669 -11.100250093920941 -13.648448754723978 0 0 0
1660 1 -7.735198688422238 -8.222303641609805 -13.641135017486363 0 0 0
1817 1 -2.2193031734238104 -11.122459612157462 -13.500394716225449 0 0 0
1688 1 -2.0529376027259065 -11.583638507454296 -10.591650575695981 0 0 0
1674 1 0.7516609480603229 -11.82197518142571 -10.47442323562411 0 0 0
1807 1 0.9078998878656499 -8.477570968194865 -13.08161320816937 0 0 0
1816 1 0.7118986253438759 -11.387473220746894 -13.281541078491713 0 0 0
1672 1 2.215251063325125 -10.351327892230834 -11.746636831182018 0 0 0
1517 1 -0.89429605683973 -12.93132226181718 -12.064753526974812 0 1 0
1797 1 -0.6320677381977653 -10.114907361356657 -11.794128228349667 0 0 0
1687 1 2.0339826611182215 -13.104237124924358 -11.877580060040282 0 0 0
1326 1 -0.9669582205396612 -13.168570514759812 -9.169310038085335 0 1 0
135 1 -2.148463175612049 -8.438129361103154 -13.511207890982803 0 0 1
1494 1 0.8373693475791093 -8.844911835266073 -10.338111342930915 0 0 0
1656 1 -2.0377143262443234 -8.672926785411757 -10.53155849101176 0 0 0
1324 1 2.1009422696903517 -13.348195787791266 -9.11833266002775 0 1 0
1675 1 -0.6812881785555174 -10.276759619606004 -9.046622735479497 0 0 0
1322 1 2.2074937804948114 -10.418675145303162 -8.90904895734882 0 1 0
1515 1 3.6067266738366435 -11.591545167092509 -13.175394597262967 0 1 0
1670 1 5.126585054519271 -10.405450965170987 -11.65513216659367 0 0 0
1806 1 3.7790872378991835 -8.740756331253062 -13.079618658643836 0 0 0
1814 1 6.417250062887252 -11.78590843279838 -13.100659093908067 0 0 0
1805 1 6.687465115486706 -8.910661737729214 -12.970543876967906 0 0 0
1668 1 7.982520948468402 -10.58866011955932 -11.52337830065504 0 0 0
1669 1 6.646864217814237 -9.29385753464294 -10.072046902050634 0 0 0
1671 1 3.7674598119726923 -9.033413093757169 -10.260009340736417 0 0 0
1685 1 6.416604600730192 -12.069537054082723 -10.199878048777201 0 0 0
1686 1 3.6494472716452755 -11.725413656241729 -10.31499696660062 0 0 0
1815 1 4.789990187421864 -13.263197780146577 -11.80762497297852 0 0 0
1507 1 7.797905822285674 -13.41892277374759 -11.615766402477677 0 1 0
1804 1 8.012406086950818 -10.414174560103032 14.385950139042855 0 0 -1
1513 1 4.930809788084513 -13.399582395775965 -8.975202786185434 0 1 0
1801 1 13.556558289713955 -10.8732720750583 -11.212784223618819 0 0 0
1697 1 13.449331438187585 -13.539291176409067 -14.240507909640332 0 1 0
1666 1 10.894423382427085 -10.654853570889236 -11.408344588852898 0 0 0
1802 1 12.193301470780511 -12.009188891958711 -12.862593629740541 0 0 0
1803 1 9.445491356832399 -9.047278793210404 -12.662179062263512 0 0 0
1813 1 9.294065817692381 -11.88258105322213 -12.813752835191774 0 0 0
1790 1 12.418845473823296 -9.175160216356403 -12.580119566450689 0 0 0
1667 1 9.513272174130083 -9.349572665634543 -9.867952666670082 0 0 0
1684 1 9.301027114410385 -12.131850255433628 -10.034421441397607 0 0 0
1665 1 12.044154141287848 -12.34581196601877 -9.97193260267623 0 0 0
1490 1 12.421021565702187 -9.376542395614038 -9.735547060261144 -1 0 0
161 1 10.830796509161463 -10.450945335495975 -14.187405279033841 0 0 1
1698 1 10.540355471438684 -13.302228512899296 -14.305946337848725 0 1 0
1664 1 10.995976309048263 -7.919802053491734 -11.187455634503827 0 0 0
1811 1 -10.588226047330332 -7.872838159296735 -13.678027202083127 0 0 0
1642 1 -10.409353826498606 -5.107774005311175 -13.580407360683937 0 0 0
1661 1 -8.996883139538198 -6.722433182032791 -12.17005222287299 0 0 0
1662 1 -11.981447831078288 -6.484329069877262 -12.2515511549315 0 0 0
1450 1 -10.449096851004782 -5.473888429021484 -10.750107998314729 0 0 0
1624 1 -11.733789704719673 -3.7026062853070343 -11.941124986443153 0 0 0
1622 1 -8.966617681137711 -3.932175861659543 -12.037882031840274 0 0 0
1469 1 -9.082251127301554 -7.012357179533314 -9.314429149987303 0 0 0
1663 1 -11.950490835096451 -6.80130938999693 -9.476313173934505 0 0 0
1279 1 -11.88614227980563 -3.9849435911666937 -9.367691234717842 0 0 0
1644 1 -13.196920095704977 -4.8201327866353605 -13.724496421471056 0 0 0
1448 1 -8.89568797327416 -4.219599973376283 -9.261112176627643 0 0 0
1776 1 -13.374147136465123 -5.230699813534443 -10.944828367890391 1 0 0
1812 1 -13.480624755158617 -7.68574750263862 -13.931041378736177 0 0 0
1430 1 -10.351083483165228 -2.5081991601115767 -10.508614712499503 0 0 0
1641 1 -7.472435779519335 -5.461679619850166 -10.500695933773335 0 0 0
1640 1 -7.499429414231024 -5.2453685839130255 -13.404598213564515 0 0 0
1638 1 -3.210469274122582 -4.165459119842401 -11.788407654788221 0 0 0
1657 1 -4.668873371923883 -5.710434541766982 -10.418651216024458 0 0 0
1659 1 -6.283861680899901 -7.009013694045303 -11.97912681403583 0 0 0
1639 1 -6.146410417909466 -4.154660437818441 -11.892284633821426 0 0 0
1619 1 -4.49670651495955 -2.843420576594559 -10.214967545315112 0 0 0
1621 1 -7.413098486017559 -2.7245270103207933 -10.377840887389768 0 0 0
1466 1 -6.206611326473891 -7.176935729893795 -9.186268022805171 0 0 0
1636 1 -3.351895747299846 -7.007442564417917 -11.842587251021003 0 0 0
1786 1 -4.706236966145735 -5.372716098561783 -13.27206185087018 0 0 0
1446 1 -5.96676083150682 -4.378973351378905 -9.02243832976909 0 0 0
1618 1 -4.5776952442066055 -2.4981220474448556 -13.001008869502641 0 0 0
1464 1 -3.401258906387394 -7.318890337663037 -8.924265417002497 0 0 0
1444 1 -3.289432317658246 -4.543260206961918 -8.920488630349464 0 0 0
1480 1 -0.3304286528174689 -4.341678500691456 -11.633743428303866 0 0 0
1673 1 -0.5417103941240295 -7.195466479279262 -11.785323852526288 0 0 0
1652 1 2.4590338520171926 -7.511293716687127 -11.613724260954918 0 0 0
1654 1 -1.7909017419778 -5.456138887475756 -13.242786815239208 0 0 0
1655 1 -1.875045024307422 -5.8655184704276335 -10.357660931928335 0 0 0
1795 1 1.0339807421258644 -5.663846107882893 -13.029722616432869 0 0 0
1633 1 1.2829921367303907 -3.194637266900953 -10.129624909597478 0 0 0
1614 1 2.5746878148814183 -4.6840189126308385 -11.396291047917359 0 0 0
95 1 1.266295989035065 -2.874058144820543 -12.945479430721688 0 0 1
1653 1 1.017918502916599 -5.990132191715627 -10.179423227704294 0 0 0
1637 1 -1.7004192676959988 -3.0269755544493897 -10.118082710680286 0 0 0
1634 1 -1.5379795423043365 -2.7946466953437703 -12.997456277171597 0 0 0
1783 1 2.6217693614095943 -4.223974470236046 -14.203924015778068 0 0 0
1462 1 -0.6543536201150779 -7.428930885115141 -8.834842313834452 0 0 0
1646 1 8.17688605597153 -7.752619986415615 -11.228619837685525 0 0 0
1632 1 3.804127355442141 -6.354656938654952 -10.045166880147395 0 0 0
1650 1 5.3273883032740805 -7.556841702264645 -11.485396988903796 0 0 0
1793 1 6.808946679426807 -6.092322203555383 -12.657652514972519 0 0 0
1630 1 5.497415030052963 -4.639414964428289 -11.28425161452492 0 0 0
1782 1 4.083298015861981 -3.0845947106795357 -12.752109239978127 0 0 0
1794 1 3.9714651883764027 -5.880794576383908 -12.773972871718296 0 0 0
1629 1 6.869036958432339 -3.474432872825478 -9.663961199872336 0 0 0
1780 1 6.906272214270313 -3.1767764462999253 -12.585117624027056 0 0 0
1438 1 4.0621863501623565 -3.397166619858515 -9.907838889519159 0 0 0
1648 1 6.723221930872256 -6.285556794456831 -9.869752038643936 0 0 0
1792 1 8.155627568015213 -7.386974988211551 -14.232061897630684 0 0 0
1779 1 8.248325407116912 -4.594763665555064 -14.124363513417853 0 0 0
1768 1 5.5335478762479084 -4.331737049525893 -14.014840436388756 0 0 0
1649 1 8.231590932173592 -4.844345470230492 -11.1781555276289 0 0 0
1781 1 5.26551237566591 -7.233073860539023 -14.289541722436361 0 0 0
142 1 11.021490035135848 -7.7663000232718025 -14.02460439534621 0 0 1
1628 1 11.121968173251766 -5.142429466423929 -11.084210290915994 0 0 0
1791 1 9.599781115381717 -6.216052709817596 -12.5108033500108 0 0 0
1626 1 9.68385810398306 -6.48622480641852 -9.797278044282525 0 0 0
1777 1 12.457798928497215 -6.453272684247092 -12.512950866991657 0 0 0
1764 1 12.613392760284125 -3.625355691004348 -12.302519976764662 0 0 0
1627 1 9.743580141797 -3.6016379626182893 -9.68861057433142 0 0 0
123 1 11.090052900602348 -4.806949666213898 -13.916418601768976 0 0 1
1606 1 12.525730203225695 -6.715707946564844 -9.541115361793757 0 0 0
1625 1 12.666854023254452 -3.8499243928268054 -9.417553898115635 0 0 0
1778 1 9.768159883283765 -3.294958304789681 -12.481742946234366 0 0 0
1643 1 -13.20843233545087 -2.3694424289978926 -10.614246343260703 0 0 0
1775 1 -10.250777519879133 -2.3322759323992663 -13.39516862217451 0 0 0
1751 1 -13.2243185679397 -1.925454286514542 -13.603883937396102 1 0 0
1602 1 -8.73031418516046 -1.1468416033018034 -11.778558609907735 0 0 0
1604 1 -13.063302251025807 0.7890034366215541 -13.4493985514373 0 0 0
1623 1 -11.629478829108645 -0.9441623121471192 -11.985467957084136 0 0 0
1603 1 -11.39818421828636 1.9204078903742765 -11.727782511842655 0 0 0
1762 1 -10.052993778774884 0.5695752519096331 -13.243748530164162 0 0 0
1432 1 -12.971121312699413 0.4562049172492557 -10.584804087143402 0 0 0
1410 1 -10.138417139580564 0.23335348410159895 -10.47900998334897 0 0 0
1601 1 -8.66553472659082 1.8376500673871803 -11.6686831428209 0 0 0
1259 1 -11.677112204031713 -1.2108139412374186 -9.083509178127663 0 0 0
1411 1 -11.362672859428763 1.6493407549545545 -8.957842821931504 0 0 0
1428 1 -8.8987998309803 -1.2862302205222953 -9.06954452663005 0 0 0
1409 1 -8.699489562140593 1.522696518491216 -8.844695921202536 0 0 0
1787 1 -7.481021575379582 -2.384591301795819 -13.27043452112083 0 0 0
1620 1 -6.012226852835902 -1.2191526507033679 -11.633920335531307 0 0 0
1761 1 -7.315406242428222 0.5761401318604129 -13.051854313813747 0 0 0
1600 1 -4.4203390389484625 0.004850905284946805 -10.118980206550232 0 0 0
1598 1 -4.38007158380853 0.2904365591410407 -12.93082361960862 0 0 0
1599 1 -5.79431700483707 1.6890596915108826 -11.584681049590241 0 0 0
1408 1 -7.366997912269248 0.29654786395937727 -10.271976444453317 0 0 0
1617 1 -3.042424332555358 -1.2945956905115317 -11.542433205316351 0 0 0
1386 1 -4.240294386239983 2.770630544412418 -9.937577169277837 0 0 0
1597 1 -2.91266014236329 1.5060419364456212 -11.444860719325442 0 0 0
1388 1 -7.127376195003723 2.942878709516412 -10.136650130148467 0 0 0
1759 1 -2.9222390731493935 1.6815441784245806 -14.387336757558526 0 0 0
1578 1 -4.344773486427057 3.1373602190204597 -12.87579619707678 0 0 0
1772 1 -3.0533966457058117 -1.0386869003158719 -14.354543063731565 0 0 0
1760 1 -5.8878303904804135 2.0673941032121483 14.32457438978221 0 0 -1
1615 1 -0.171206977479736 -1.6380382763757186 -11.359398830799073 0 0 0
1595 1 -0.11399290242800397 1.3237685449135892 -11.38668318013481 0 0 0
1596 1 -1.5123755903579248 -7.102505243850032e-05 -12.762819635233708 0 0 0
1613 1 1.327706653624647 -0.3514757335824381 -9.790634820233477 0 0 0
1404 1 -1.4389045478424265 -0.3474523632228603 -9.991172550440329 0 0 0
1384 1 -1.37849403105057 2.612659857079537 -9.874419957720107 0 0 0
1382 1 1.4085049980727913 2.4480232000474036 -9.704216939132966 0 0 0
1771 1 1.232563618629115 0.024376611843836216 -12.703754255751475 0 0 0
1631 1 2.674141885964662 -1.7665635724418838 -11.347423850506466 0 0 0
1574 1 1.4391840287360367 2.838471698176475 -12.595062905777135 0 0 0
1594 1 -0.17186541545634348 1.5047600498561167 -14.122054921563423 0 0 0
1612 1 2.7192822623457573 -1.3234193871433 -14.190556895670635 0 0 0
1593 1 2.7524005615075033 1.147389363372369 -11.080694884454088 0 0 0
1757 1 2.7940416814535567 1.3689598722563385 -13.987644773388547 0 0 0
1576 1 -1.385748087430109 3.01676209239446 -12.75064844395193 0 0 0
77 1 -0.08208226230880378 -1.3047240787581202 -14.275323306656238 0 0 1
1610 1 5.529953270736765 -1.9045628055542512 -11.143127677028527 0 0 0
1590 1 5.73533629435131 0.9365802644345163 -10.914159708090565 0 0 0
1611 1 4.23240099496682 -0.5086541734279102 -9.592957274962622 0 0 0
1591 1 4.277703471170145 2.2739164464789727 -9.48128359313833 0 0 0
1592 1 4.176356562150492 -0.269703194061254 -12.498418155337609 0 0 0
1756 1 5.66358624189014 1.3472680934730263 -13.76762783452562 0 0 0
1570 1 7.266869808758255 2.544221028287202 -12.285952346019647 0 0 0
1572 1 4.292127279392535 2.642431109609449 -12.29485508375214 0 0 0
1609 1 7.084199658925932 -0.7146103588537329 -9.45199859697705 0 0 0
1767 1 7.162771715030075 -0.3162224775781013 -12.446999993530618 0 0 0
1769 1 5.567842531886974 -1.6653068645438385 -14.026686828933215 0 0 0
1589 1 7.12539808589969 2.185856511467705 -9.493417240146822 0 0 0
1608 1 8.460372773792447 -2.038761348734356 -11.015730830792922 0 0 0
1766 1 8.321441513046068 -1.7724270654400645 -13.928308422217336 0 0 0
70 1 8.617180103277015 1.185358991779001 -13.740459113298161 0 0 1
1588 1 8.55902311484375 0.8588961046804755 -10.846264263056685 0 0 0
1765 1 11.326091697439583 -2.1279474350101655 -10.852048817584295 0 0 0
1754 1 10.000403984497979 -0.4546128719832083 -12.26013922475386 0 0 0
1763 1 12.910783775737066 -0.7392708014195613 -12.060744674262049 0 0 0
1412 1 12.918991317469736 2.101340858110186 -11.95391233614346 -1 0 0
1586 1 11.357767846120385 0.6856084367279713 -10.722685083430214 0 0 0
1752 1 10.056530789158082 2.278777384710203 -12.11489499544178 0 0 0
1750 1 11.43330326830229 1.0204467620991657 -13.614449333650022 0 0 0
1607 1 9.870481005458416 -0.855676818982392 -9.450611606421543 0 0 0
1753 1 11.346563558594106 -1.9878007130426951 -13.682134812168972 0 0 0
1587 1 9.933250990007878 2.05446752870418 -9.240109862741633 0 0 0
1605 1 12.77807620650266 -0.9209070919959128 -9.175243861487832 0 0 0
1585 1 12.902271180665064 1.8487386159095056 -9.140483125853674 0 0 0
1390 1 -10.007486500567566 3.2714359310840795 -10.194779516428163 0 0 0
1392 1 -12.926029897320559 3.2215868944349584 -10.434603122034167 0 0 0
1582 1 -10.087264937446855 3.4146225809808453 -13.2129295187805 0 0 0
1584 1 -12.807262367631868 3.564340698920221 -13.209687310886789 0 0 0
1583 1 -11.389282241544834 4.845646769972555 -11.609391529552152 0 0 0
1562 1 -9.934723273176404 6.274522677080645 -12.897018841774758 0 0 0
1564 1 -12.771607469684277 6.518149846477305 -13.162687701218399 0 0 0
1563 1 -11.28643299662409 7.507452166392072 -11.524956594342045 0 0 0
1370 1 -9.989671184822667 5.973769666207167 -10.110016262901837 0 0 0
1372 1 -12.775463470125572 6.213025672786008 -10.176884830265944 0 0 0
1581 1 -8.59873844319625 4.621617931445831 -11.493839325473742 0 0 0
1561 1 -8.413080867512662 7.422922288421082 -11.328414635351034 0 0 0
1736 1 -8.442000124328537 7.685879364654129 -14.076401514234524 0 0 0
1748 1 -8.519862526087849 4.966799442221022 14.410602795439079 0 0 -1
1391 1 -11.5502043957362 4.6100672629192285 -8.89813909701961 0 0 0
1580 1 -7.272989343549139 3.2797901218575714 -12.953278313812474 0 0 0
1558 1 -4.077231499413694 5.853363300262737 -12.668197677586061 0 0 0
1560 1 -7.000671011404708 6.138073345711748 -12.849400225073735 0 0 0
1579 1 -5.744883734491046 4.469685481556164 -11.43759533042616 0 0 0
1559 1 -4.054264890956125 5.604527502378856 -9.872454355761512 0 0 0
1368 1 -7.002548238770761 5.915992187243068 -9.998475030456031 0 0 0
1540 1 -5.436356079572116 7.332146536444009 -11.279402279565094 0 0 0
1735 1 -5.604811721245808 7.577813871386896 -14.063135039426813 0 0 0
1746 1 -2.66916337204068 4.484908207714424 -14.08536028778565 0 0 0
1347 1 -3.9486273070123907 8.561182463417774 -9.64151068536617 0 0 0
1577 1 -2.7616682020827046 4.152957517759306 -11.199759720479296 0 0 0
1747 1 -5.642029652201938 4.788883022804567 -14.215686335478578 0 0 0
1734 1 -2.633353678539793 7.393291475885816 -13.877547892589599 0 0 0
1557 1 -2.5730971040755932 7.145359013665312 -11.100210265546965 0 0 0
1538 1 -3.960604835174463 8.974434879623574 -12.491532419223423 0 0 0
1556 1 -1.232960180962266 5.702270188984491 -12.452567171863695 0 0 0
1554 1 1.5517781247658071 5.645991355387951 -12.39710333429555 0 0 0
1575 1 0.10375266410051687 4.14450370363395 -11.141919772813578 0 0 0
1745 1 0.10345011188454833 4.415354422373406 -14.0812307009107 0 0 0
1555 1 0.1735843209147454 6.958209721448428 -10.884602078457096 0 0 0
1733 1 0.15931222899092035 7.313848717579562 -13.823948810552137 0 0 0
1364 1 -1.1731033842677423 5.42524089916626 -9.560611901266721 0 0 0
1362 1 1.612855417099798 5.417945658628453 -9.414894301907019 0 0 0
1343 1 1.8887480826494816 8.3990214278772 -9.448078290327445 0 0 0
1345 1 -1.1247689896935693 8.400354711360459 -9.479746380542016 0 0 0
1534 1 1.7070532628056245 8.386446286974829 -12.205425595763714 0 0 0
1573 1 2.8440643308361686 4.016261606162187 -10.89002170615391 0 0 0
1744 1 2.8963295992030673 4.30364406897594 -13.821323848502406 0 0 0
1536 1 -1.0832623432281583 8.7087360989929 -12.202482993624741 0 0 0
1553 1 3.0808569694367662 6.82984382054242 -10.776507740432184 0 0 0
1732 1 3.055198638345722 7.055254364574461 -13.49678322969531 0 0 0
1551 1 5.9990567809381545 6.5281465805710095 -10.559965833243387 0 0 0
1552 1 4.540621567055016 5.42555182231864 -12.248385637809665 0 0 0
1571 1 5.7449703726261525 3.780746159207032 -10.872171941624151 0 0 0
1743 1 5.992800279937622 4.125761350011102 -13.775217363336406 0 0 0
1550 1 7.312280948511976 5.249201901548018 -12.183093216874498 0 0 0
1729 1 7.409343366771932 8.103974173004529 -11.874419194033187 0 0 0
51 1 5.986598611689551 6.8785798929844955 -13.495007392169656 0 0 1
1360 1 4.442649380234801 5.0616995054730065 -9.447716860538112 0 0 0
1341 1 4.593064586060066 8.158855611653754 -9.215637532550046 0 0 0
1731 1 4.676392337033093 8.224836690535446 -11.994513092092735 0 0 0
1376 1 7.29334458863206 5.08825180245084 -9.109294705860043 0 0 0
1549 1 7.445535003596454 7.883217442013764 -8.99444733211413 0 0 0
1568 1 8.589551964237938 3.6929771614797122 -10.584277728626375 0 0 0
1742 1 8.796438407330236 3.9513627793704504 -13.55956345609818 0 0 0
1730 1 8.925266202937127 6.86281915528941 -13.215232643699817 0 0 0
1569 1 8.709332535640353 6.513498831269471 -10.51240478741681 0 0 0
1566 1 11.478105254332977 3.5806135149234226 -10.584725652000934 0 0 0
1526 1 13.266111421579307 7.870961320760783 -11.71315354202101 0 0 0
1726 1 13.211063577767998 4.944157333711628 -11.825824612368283 0 0 0
1741 1 10.219662357770947 5.085506549318799 -11.912472222121437 0 0 0
1739 1 11.66064209561912 3.827802278175584 -13.408174938771102 0 0 0
1546 1 11.712397471801879 6.306369201656425 -10.341568613560145 0 0 0
1727 1 10.427486463831201 8.025895273650464 -11.731038299502362 0 0 0
1728 1 11.738073139593052 6.521995823584005 -13.101896436926502 0 0 0
1567 1 10.197341638766371 4.999051021627549 -9.23368509117321 0 0 0
1547 1 10.343569319127518 7.67105259465872 -8.98383490205411 0 0 0
1565 1 13.05994566206877 4.730055740040024 -8.949689972522823 0 0 0
1548 1 13.197100863529801 7.461951785980142 -8.81089050959742 0 0 0
1712 1 13.320736864706983 8.190345185231847 14.315035144245662 0 0 -1
1351 1 -9.674932358577646 8.756975908506876 -9.905478696787398 0 0 0
1353 1 -12.713510076429712 8.951468631932046 -10.147535964540964 0 0 0
1503 1 -10.998776120104651 13.242252398758277 -11.079492428854788 0 -1 0
1700 1 -12.540148674287892 9.291052278851636 -12.835071976909846 1 0 0
1542 1 -9.716362349770431 9.010977549356946 -12.652237841460664 0 0 0
1524 1 -9.475113026968502 11.969714224639619 -12.533344540096587 0 0 0
1543 1 -11.058327230456971 10.418824888364478 -11.230958099047616 0 0 0
1544 1 -12.415434841746464 12.014976461428065 -12.719298729839158 0 0 0
1545 1 -12.455764697267266 11.760694674919984 -9.796235908789058 0 0 0
1333 1 -9.583620523827067 11.665093717151334 -9.72250398243101 0 0 0
1724 1 -11.045594433532049 10.80361534841589 -14.058305545283337 0 0 0
1541 1 -8.225041175604115 10.280319557893316 -11.154179138049209 0 0 0
1349 1 -6.845964579283514 8.525638940448895 -9.805773763205096 0 0 0
23 1 -8.071312699257163 10.791212423213219 -13.892301210732693 0 0 1
1819 1 -8.00921350640145 13.491100632779121 -13.73761862309728 0 -1 0
1523 1 -8.054099179531615 13.229570704072573 -11.068185123614754 0 0 0
1723 1 -6.805906216107443 8.978625089437179 -12.664609290506894 0 0 0
1710 1 -5.135342490168982 13.407981436860977 -13.635740668334499 0 0 0
1520 1 -3.782412666155059 11.684611694706659 -12.260066244908234 0 0 0
1522 1 -6.54108307470287 11.807337582144056 -12.473103921721297 0 0 0
1539 1 -5.38677112812198 10.200923155588503 -11.01331550386045 0 0 0
1521 1 -5.192985246647455 13.051020696328164 -10.904226600281278 0 0 0
1329 1 -3.7747665191303597 11.35582841397134 -9.516061002889003 0 0 0
1331 1 -6.768784078158371 11.56415559011572 -9.67451819094467 0 0 0
1722 1 -5.275780852317963 10.4825789317447 -13.886323820465302 0 0 0
1537 1 -2.452567208841975 9.969629679670122 -10.910031557025746 0 0 0
1721 1 -2.4438768276971423 10.222082864682426 -13.767077383745988 0 0 0
1519 1 -2.372394761815869 12.876799102566634 -10.68575676218482 0 0 0
1709 1 -2.264120136603431 12.979913463841447 -13.59955666181739 0 0 0
1327 1 -1.052325483828355 11.303853484716688 -9.374413331718372 0 0 0
1518 1 -0.9981698631648364 11.465346604172604 -12.089028341879361 0 0 0
1516 1 1.887458182416621 11.331053770056753 -11.912735170154432 0 0 0
1535 1 0.31461963121893355 9.819363921262985 -10.705889380841722 0 0 0
1708 1 0.5808859096809833 12.865743926849225 -13.435728805836733 0 0 0
1720 1 0.3489805294231161 10.050805280375632 -13.57948159240897 0 0 0
1325 1 0.5192636617714541 12.680097887922953 -10.627667689900496 0 0 0
1533 1 1.8405000070302862 11.04254580701848 -9.17245380903076 0 0 0
1532 1 3.3363028117076325 9.662026774485254 -10.717893834074008 0 0 0
1719 1 3.3247622051779615 9.845428111686266 -13.384096846503537 0 0 0
1716 1 6.1083316729976325 9.762720757218032 -13.25749806848399 0 0 0
1530 1 6.214224589370335 9.533234970145203 -10.458477044993874 0 0 0
1514 1 3.465037465906672 12.520190905236399 -10.467004384874349 0 0 0
1705 1 6.3439171464441415 12.732098715074637 -13.154245106276903 0 0 0
1707 1 3.3540156120304125 12.673537124975647 -13.264941912277745 0 0 0
1717 1 4.788057362826024 11.136436995916936 -11.962329762157971 0 0 0
1512 1 6.291048495547862 12.358462236553406 -10.356733967951033 0 0 0
1715 1 7.667905100458025 10.941937443002958 -11.783502916713932 0 0 0
1531 1 4.878285869973485 10.877220823376783 -9.09816358611478 0 0 0
1529 1 7.579747515285295 10.765808747473 -8.980143237677314 0 0 0
1506 1 10.592214233272898 13.598636525713706 -11.47200817040189 0 0 0
1505 1 13.425811040872855 13.43493853977184 -11.319720037467253 0 0 0
1714 1 8.982526553676028 9.77758642021078 -13.337580533774974 0 0 0
1508 1 13.404289801129512 10.673740031271956 -11.478865201183734 0 0 0
1527 1 11.901136875326113 9.201193270940633 -10.142132884561708 0 0 0
1528 1 8.947569067955794 9.313320491513098 -10.324759562723004 0 0 0
1713 1 11.975855985391664 9.501977810288063 -12.975266373267276 0 0 0
1510 1 10.569532641579947 10.815775483180206 -11.731215184910113 0 0 0
1701 1 11.959415708238527 12.435221220208595 -12.930259250392165 0 0 0
1703 1 9.135235628176368 12.399045762845828 -13.081305048946854 0 0 0
1509 1 11.913902298442448 12.119171376314975 -10.088077158215768 0 0 0
1511 1 9.200659867371431 12.170807031065548 -10.154109968156822 0 0 0
1725 1 13.342056549367506 11.01341809224243 -14.41758583289692 -1 0 0
1502 1 -10.797465270671564 -11.304016676199723 -8.114417690670116 0 0 0
1108 1 -12.171574640438301 -10.264729457999508 -3.8645586426065517 0 0 0
1299 1 -10.53749667818393 -8.90842799463238 -5.105608904995593 0 0 0
1311 1 -10.831991804620301 -11.639716506409018 -5.375126670976705 0 0 0
1297 1 -9.086088046540528 -10.270645250686773 -6.616326345085514 0 0 0
1310 1 -9.430529934296747 -13.068521032123463 -6.7825252014631285 0 0 0
1489 1 -10.598691022327674 -8.433573869297613 -7.970352129726689 0 0 0
1452 1 -12.025530134570033 -9.878913643721017 -6.648888082069448 1 0 0
1120 1 -12.23218847712313 -13.125910832874956 -3.936583615022018 0 0 0
1312 1 -12.314217553250856 -12.81100869182635 -6.896146928828096 0 0 0
1106 1 -9.404459862923595 -10.58669763135297 -3.6926995969257863 0 0 0
1119 1 -9.374449549412606 -13.326916517180347 -3.7235782000035282 0 0 0
1261 1 -13.382675130859234 -8.603602416136303 -5.37529767106161 1 0 0
1645 1 -13.335874615614522 -8.342656121271647 -8.138402490699091 1 0 0
1504 1 -13.576275485730049 -11.133911531906506 -8.342724963609392 0 0 0
1309 1 -7.972820237548821 -11.89672500505584 -5.2255186202465715 0 0 0
1500 1 -7.8935690393224665 -11.670460143321257 -7.925027725653664 0 0 0
1296 1 -7.80616311244645 -9.137932825211891 -5.055425000150709 0 0 0
1487 1 -7.707812177342375 -8.575467384525055 -7.915523008912001 0 0 0
1294 1 -5.084648937209657 -9.098904618174757 -5.050967249664257 0 0 0
1295 1 -6.423566144525505 -10.331289428984627 -6.622598529524939 0 0 0
1307 1 -4.94611096698085 -11.968718224505205 -5.047765772264713 0 0 0
1308 1 -6.545421240003266 -13.159397655178624 -6.546749950998381 0 0 0
1485 1 -4.8907249693822035 -8.833474680470783 -7.775193970070215 0 0 0
1498 1 -4.976123482196611 -11.734458699258898 -7.973923234770178 0 0 0
1293 1 -3.6360363615444253 -10.411461494111546 -6.282045416451979 0 0 0
1306 1 -3.6005520323752407 -13.26908140010078 -6.59941932530379 0 0 0
1104 1 -6.442459534705842 -10.639868731458769 -3.559721876802815 0 0 0
1117 1 -6.456731572655684 -13.420467147582746 -3.767188228439494 0 0 0
1102 1 -3.589123933281348 -10.556878667505954 -3.4612819765677774 0 0 0
1115 1 -3.5705607887327258 -13.570724881868047 -3.661058337040915 0 0 0
1808 1 0.7763955700143246 -11.91595709744076 -7.586644697764592 0 0 0
1305 1 -2.0719458554252217 -12.077035063468877 -4.882181789313048 0 0 0
1496 1 -2.1326255834353347 -11.78121244786075 -7.750409247825235 0 0 0
1291 1 -0.6249509777434561 -10.506485598729776 -6.341592010223994 0 0 0
1292 1 -2.0468644882342524 -9.257214605989642 -4.718946123045203 0 0 0
1483 1 -2.183322935834015 -9.042111406223341 -7.683383421701846 0 0 0
1290 1 0.7945539654715521 -9.18837597406354 -4.646038395594706 0 0 0
1304 1 0.7005737484688783 -12.202405088426227 -4.7471651802953865 0 0 0
1481 1 0.8833988582328729 -9.0073808964435 -7.584795742771455 0 0 0
1289 1 2.1930231667189446 -10.566580646699421 -5.887459785390634 0 0 0
1100 1 -0.693591701190865 -10.765060232420451 -3.2683277906855785 0 0 0
1135 1 -0.7484438892631413 -13.431667565301169 -6.435596203807931 0 1 0
1482 1 2.1367190859650105 -13.583044214132666 -6.237812406528125 0 0 0
1478 1 5.186650344170985 -10.663565606479123 -8.766651002481748 0 0 0
1476 1 8.100853461415749 -10.86181265558551 -8.6615783936579 0 0 0
1269 1 3.7160702356513404 -9.612737098704873 -4.385273646511907 0 0 0
1287 1 5.116169037282862 -10.889115374208854 -5.832017790191191 0 0 0
1477 1 7.946413073178071 -11.032047740118792 -5.65041461585413 0 0 0
1479 1 3.7566174879950545 -9.30951095265496 -7.303220103405863 0 0 0
1493 1 6.342985320104923 -12.261594451366523 -7.451789484958692 0 0 0
1303 1 3.510153854340153 -12.369003703757192 -4.606371799043835 0 0 0
1458 1 6.483865496026429 -9.463511102835742 -7.1801957544341946 0 0 0
1265 1 8.121581026545773 -8.285975451058384 -5.541442057491102 0 0 0
1130 1 6.419594392698638 -12.63981194554487 -4.5567693088384456 0 1 0
1286 1 6.549629922129835 -9.80444098994585 -4.266327663099569 0 0 0
1133 1 3.619426141448905 -12.15603135549342 -7.4457341668260035 0 1 0
1267 1 5.377407050201292 -8.181749480549051 -5.7102541177315285 0 0 0
1313 1 13.629985823457883 -11.43432923338895 -5.52594112132914 -1 0 0
1285 1 9.39212629941084 -12.715311085910518 -4.244795792043874 0 0 0
1474 1 10.890487032755939 -11.107811557089688 -8.444015359243867 0 0 0
1283 1 10.797738775750421 -11.333580241037343 -5.521338486352148 0 0 0
1473 1 12.289511575894597 -9.791826942574312 -6.912701468347549 0 0 0
1475 1 9.396525349430185 -9.542368666192953 -7.041018864609577 0 0 0
1492 1 9.33051500058109 -12.452046864343547 -7.122645232252305 0 0 0
1472 1 12.155952139400537 -12.556742752471404 -7.084721742733671 0 0 0