LAMMPS data file via write_data, version 2 Aug 2023, timestep = 0, units = metal

1870 atoms
3 atom types

-14.192622762620003 14.192622762620003 xlo xhi
-13.686962673743906 13.686962673743906 ylo yhi
-14.167189268422504 14.167189268422504 zlo zhi

Masses

1 55.847
2 1.008
3 1.008

Atoms # atomic

128 1 -13.171875757191188 -11.78752155297661 -11.80156986245576 0 0 0
158 1 -13.206434458077704 -10.198936857009613 -13.745665777831615 0 0 0
73 1 -11.218845983876552 -11.684773879097271 -13.863765774344806 0 0 0
74 1 -9.165526010894068 -13.059994145144447 -13.573207163003163 0 0 0
127 1 -10.918473003830837 -13.093883394103697 -11.737513404608526 0 0 0
155 1 -11.151557700021568 -10.455227580041457 -11.594272346802235 0 0 0
75 1 -9.024992539536234 -11.537493352318696 -11.44763712177748 0 0 0
78 1 -7.045230788892751 -11.251869258953274 -13.6288367040019 0 0 0
264 1 -3.287634516761001 -11.023694764824617 -13.219727403980542 0 0 1
268 1 -5.087067228989147 -12.862265212352561 -13.462274845260426 0 0 1
83 1 -1.0965540425862397 -13.063056883802185 -12.796901215469877 0 0 0
52 1 -13.474528481666521 -7.506221749865282 -13.355618172991996 0 0 0
156 1 -13.345152908875779 -9.13386163394087 -11.502275986467025 0 0 0
53 1 -11.234425541949562 -8.844328695724549 -13.505345374701847 0 0 0
77 1 -9.197749155127283 -10.044991948913776 -13.446321147557759 0 0 0
32 1 -9.465855180249607 -7.063456276427367 -13.190179750156265 0 0 0
56 1 -7.464606155403637 -8.39999910528985 -13.133601328840278 0 0 0
57 1 -5.232561332698031 -9.535478852696432 -13.274312314529256 0 0 0
62 1 -3.427601928247391 -7.878929209165226 -13.311609498912883 0 0 0
36 1 -5.511687414842715 -6.782815847612865 -13.151825075306206 0 0 0
63 1 -1.292911294347629 -9.158860481973965 -13.495376828149045 0 0 0
214 1 -13.709113918357568 -4.585519962140003 -12.957437194042756 0 0 0
31 1 -11.515166379235135 -5.841088332097983 -13.13009492105921 0 0 0
11 1 -9.721098471567357 -4.207993782119814 -12.747625225451399 0 0 0
35 1 -7.451021765414962 -5.444242271655886 -13.058015115272742 0 0 0
18 1 -5.683817515966821 -3.829206776229803 -12.707728030057217 0 0 0
41 1 -3.600671825687712 -5.092458424891957 -12.839228516304889 0 0 0
42 1 -1.3848153071167335 -6.287615085448325 -13.126523637898618 0 0 0
1 1 -11.936710409849745 -3.019796277072386 -12.686737580553398 0 0 0
10 1 -14.016686597755314 -1.7188154811757173 -12.714581008070992 0 0 0
121 1 -13.319005908982913 -12.685222657338361 -0.06210764360679022 0 0 0
492 1 -9.900277305201065 -1.300119038911978 -12.53109087462569 0 0 0
303 1 -7.757290887823538 -2.5038905738019785 -12.604814167307195 0 0 1
20 1 -5.8928436400304065 -0.7829347883186184 -12.468766185756891 0 0 0
15 1 -3.8662570174733375 -2.153323796299645 -12.634087356833893 0 0 0
21 1 -1.6737093856718772 -3.3220754880428505 -12.969550616401355 0 0 0
6 1 -2.2132575795429528 -0.3880644247216605 -12.451008884332186 0 0 0
157 1 -13.111845371831004 -10.984025026631517 -9.39840050280038 0 0 0
123 1 -10.944693707519674 -12.167410114949247 -9.35988689180546 0 0 0
150 1 -9.130382420410594 -10.437715058762215 -9.232214025769744 0 0 0
122 1 -9.007601539648832 -13.471903488121333 -9.44623638131069 0 0 0
76 1 -7.042182250179257 -12.96849698050986 -11.522722032538518 0 0 0
79 1 -7.025070567943206 -11.863445108610874 -9.245999882537099 0 0 0
81 1 -5.120161370731802 -11.346948250379302 -11.30808530195332 0 0 0
82 1 -3.2823701842905084 -13.121877524195718 -11.263228958728009 0 0 0
80 1 -5.063049694829887 -13.191770870653516 -9.256556241210408 0 0 0
87 1 -3.0885954909876645 -11.641160829052147 -9.164494660560464 0 0 0
59 1 -5.237872764989671 -10.200220470696644 -9.103427409399387 0 0 0
89 1 -1.4040777365666166 -11.249472391354919 -11.116172503601215 0 0 0
88 1 -1.1322192360121068 -13.011210455671666 -9.184957828408873 0 0 0
185 1 -13.270426127507179 -7.866089967833529 -9.391418798492829 0 0 0
183 1 -11.393588010023665 -7.551047026258669 -11.184933211981285 0 0 0
151 1 -11.25156133928381 -9.302144744126153 -9.163240990205242 0 0 0
54 1 -9.300466232895854 -8.680040962601998 -11.151169585666498 0 0 0
178 1 -9.470024725846724 -7.560759106535254 -9.140712583323392 0 0 0
55 1 -7.254291296759603 -10.123011943674136 -11.272809715015185 0 0 0
58 1 -7.188201511436497 -8.931594024944586 -9.1498098497003 0 0 0
34 1 -7.393138464538709 -7.118270651370978 -11.008844937139994 0 0 0
61 1 -3.3395654373103483 -9.684293109971613 -11.201477585423211 0 0 0
60 1 -5.304151833644388 -8.375276525144766 -11.145002307559123 0 0 0
40 1 -3.2424087272571374 -6.803454918722327 -10.977505664732636 0 0 0
38 1 -5.251251622824109 -7.31517754493788 -8.91524312105286 0 0 0
66 1 -3.2004464114338393 -8.766717134454424 -8.931067200130908 0 0 0
68 1 -1.2296018290793231 -8.182703365574628 -11.083889797466854 0 0 0
67 1 -1.2493769367818874 -9.985177954046495 -8.908738070616653 0 0 0
46 1 -1.3866411252076976 -7.032331856105311 -8.936021943939103 0 0 0
184 1 -13.546384105427784 -6.220474369379745 -11.17105238847267 0 0 0
213 1 -13.596893284519377 -4.962632292524432 -8.988601144820208 0 0 0
211 1 -11.660163172681038 -4.603170084072369 -10.985099964490404 0 0 0
179 1 -11.437802515372361 -6.13980408100926 -9.102657345990309 0 0 0
33 1 -9.614935608290079 -5.91015798218096 -10.986961909867127 0 0 0
206 1 -9.488403997640521 -4.7020209880652075 -8.860737989295256 0 0 0
13 1 -7.579723445460632 -4.275200595347936 -10.86370747882699 0 0 0
37 1 -7.443934211913693 -5.95411651487475 -8.999155018068375 0 0 0
39 1 -5.488477363642973 -5.464892500661515 -10.842168184630722 0 0 0
286 1 -3.548766200447485 -3.7662527082440427 -10.724495865897051 0 0 1
45 1 -3.5011085716881 -5.680838108439213 -8.96158188271355 0 0 0
17 1 -5.5147533261956205 -4.312585730855732 -8.726028006738346 0 0 0
47 1 -1.6242453500454914 -5.074625093659112 -11.013119050878496 0 0 0
207 1 -11.648254315868062 -3.3540719773582435 -8.825708563755 0 0 0
212 1 -13.80147711790162 -3.357122573959355 -10.884937360713725 0 0 0
235 1 -11.860873804038754 -1.7748093404238485 -10.640474775890194 0 0 0
236 1 -13.858402100252313 -2.0158450916184947 -8.581381654677031 0 0 0
487 1 -14.018548724516025 -0.3577887226182863 -10.38380731076957 0 0 0
12 1 -9.700411660474604 -2.9393958495384975 -10.63847401616543 0 0 0
232 1 -7.797592733984163 -1.4137128488425414 -10.498691951300634 0 0 0
14 1 -5.737678900629307 -2.560297599451589 -10.60615645695077 0 0 0
5 1 -3.9434890838719454 -0.8829594707009392 -10.498875944103382 0 0 0
26 1 -1.6704258907362544 -2.034672552960508 -10.624339439090406 0 0 0
125 1 -13.134419234254707 -12.891391003304557 -7.2859432694090405 0 0 0
154 1 -13.243176471548887 -10.963433359007922 -5.718306338211379 0 0 0
152 1 -11.119911262227816 -10.994764361468881 -7.253666844411745 0 0 0
116 1 -9.129079153909096 -12.088659449536953 -7.226441896022141 0 0 0
143 1 -7.273740443918484 -10.678705625869824 -7.109709209439165 0 0 0
85 1 -5.135811469429546 -11.998524810406856 -7.188598098425081 0 0 0
65 1 -3.3085006102779335 -10.27327812817686 -7.010006184334645 0 0 0
86 1 -3.1382792998658484 -13.161939591441994 -7.227554372755596 0 0 0
92 1 -1.1910550103545905 -11.72512655038927 -6.867670556574495 0 0 0
153 1 -13.152830565915405 -9.331614968741832 -7.531100547407755 0 0 0
180 1 -11.175808450066942 -7.892658575920213 -7.115493463861879 0 0 0
144 1 -9.263407726964441 -9.297944939047085 -6.981758945165605 0 0 0
171 1 -7.343538578320367 -7.724458627001456 -6.9495939879723085 0 0 0
64 1 -5.325844609867753 -9.01813393751885 -6.9121013458075975 0 0 0
44 1 -3.3780678418116015 -7.453160917917882 -6.778567067914124 0 0 0
71 1 -1.3754845529399038 -8.845568437746401 -6.6862840692821175 0 0 0
181 1 -13.458492673808315 -6.525372754141197 -7.1527392316157945 0 0 0
209 1 -13.762977396149195 -3.7397583689901364 -6.850489618238252 0 0 0
208 1 -11.538871691576418 -4.995039424017746 -6.9141558419630105 0 0 0
172 1 -9.373073109094975 -6.29188927064415 -6.858430479504485 0 0 0
201 1 -9.686379619576 -3.4200172853807516 -6.735943240535912 0 0 0
199 1 -7.554881233773493 -4.579130201933195 -6.7271767558948605 0 0 0
43 1 -5.459335310508399 -6.153071593814016 -6.7399916902548895 0 0 0
23 1 -3.508197647834253 -4.489874668143276 -6.762051468433458 0 0 0
25 1 -1.7217146379790105 -3.8591785047286127 -8.489738745240567 0 0 0
50 1 -1.4245619369220908 -6.020796490923849 -6.5362487200989365 0 0 0
234 1 -11.81663505402713 -0.4781489837854149 -8.347118782277004 0 0 0
202 1 -11.895253930463024 -2.154610294530629 -6.614126420082034 0 0 0
204 1 -13.871459734302626 -0.7743098735209788 -6.497114660086791 0 0 0
200 1 -9.798210187154377 -1.7170726636897147 -8.519066562571378 0 0 0
229 1 -9.965877600140878 -0.45852528276339655 -6.4386665719481355 0 0 0
16 1 -7.679232756785842 -2.9524855700276422 -8.610954203151811 0 0 0
227 1 -7.856549496448287 -1.6596197197630485 -6.628252408492632 0 0 0
4 1 -5.829374322636248 -1.4310750334508562 -8.452173081353422 0 0 0
22 1 -5.410370324401075 -3.086027476483501 -6.548821486491323 0 0 0
215 1 -1.8469230487143395 -1.4033508033137974 -0.7786378126399232 0 0 0
19 1 -3.666108873759036 -2.4576024844467934 -8.58030779319236 0 0 0
7 1 -3.8955110939764825 -1.1636058123225705 -6.399652212158653 0 0 0
29 1 -1.747416026827949 -0.6717848788506124 -8.45815189214499 0 0 0
24 1 -1.7537273769415016 -2.1990965661989197 -6.7358532951311805 0 0 0
120 1 -13.388327352317997 -12.478289025775508 -4.062713740567979 0 0 0
118 1 -11.287489929472544 -12.690240018029334 -5.244775223418349 0 0 0
145 1 -9.253034606120488 -11.085400231427316 -5.0646504742838125 0 0 0
112 1 -9.263763581394677 -12.98359765796447 -3.0255712588153134 0 0 0
147 1 -11.239955166865975 -11.685726597242653 -3.0325701733510577 0 0 0
110 1 -7.1888193947846935 -12.360631428756651 -5.036461424305495 0 0 0
139 1 -7.370549822267963 -11.351464907936501 -2.8172401127775473 0 0 0
90 1 -3.132158682673099 -12.099868490835915 -5.060390585933247 0 0 0
137 1 -5.202122968326828 -10.84307724282299 -4.964388150952276 0 0 0
109 1 -5.160844024922772 -12.432535331271314 -2.923826665366466 0 0 0
102 1 -0.9538523636754306 -13.463380120413605 -4.814632557055733 0 0 0
70 1 -1.3448991619635464 -10.516457008883432 -4.669926514451056 0 0 0
182 1 -13.293138321338139 -8.091050834955324 -5.294995453663445 0 0 0
148 1 -13.222724764083814 -9.760898644915297 -3.5622315725775646 0 0 0
175 1 -11.559014654619192 -7.949457293062719 -3.2415595892950737 0 0 0
146 1 -11.257781081118386 -9.651856792600576 -4.98553502526388 0 0 0
173 1 -9.352954648699393 -8.014798546478453 -4.857139065560963 0 0 0
140 1 -9.441199825926645 -9.822416920513797 -2.8618613652079112 0 0 0
138 1 -7.380987423865314 -9.518962069310572 -4.697587591504851 0 0 0
165 1 -5.368350758119757 -7.652723592820617 -4.7387668227978 0 0 0
69 1 -3.504925081277065 -9.224677813099945 -4.761024370931009 0 0 0
49 1 -1.5837857501111365 -7.873991890697038 -4.3273477389942485 0 0 0
176 1 -13.562930142924616 -6.745486733757813 -3.2502859238073327 0 0 0
210 1 -13.628338437024038 -5.135512453007255 -5.089787660724442 0 0 0
203 1 -11.573207733979073 -3.70106084246623 -4.738689397225722 0 0 0
170 1 -11.70466653492129 -5.162208889967911 -2.927297595498981 0 0 0
205 1 -13.750694746914958 -4.040486430556562 -2.8106414320961193 0 0 0
174 1 -11.465987063280716 -6.55426242519701 -5.019972208450168 0 0 0
168 1 -9.534502397437823 -5.010364247721123 -4.833231440579947 0 0 0
166 1 -7.497586273967354 -6.315004376626005 -4.642798199006597 0 0 0
193 1 -5.565913080917284 -4.751674064193196 -4.603768370078884 0 0 0
194 1 -7.7553325040643815 -3.1834517235194237 -4.613378028862634 0 0 0
48 1 -3.4073215348856074 -6.1018366813772 -4.8113360878800595 0 0 0
27 1 -3.6724043489333837 -3.1888018633949375 -4.7022428018147036 0 0 0
28 1 -1.6128058218387693 -3.95222160946477 -5.177033691821153 0 0 0
51 1 -1.4191884118302518 -5.5985651471379025 -3.5741865258417693 0 0 0
231 1 -13.876308690971443 -2.39395205797012 -4.63778617050964 0 0 0
224 1 -11.993010707276586 -0.7000472618284306 -4.469128203849031 0 0 0
196 1 -9.716591389705597 -2.001278874726392 -4.612917807579819 0 0 0
222 1 -7.925378932651965 -0.4399006909955059 -4.3619341126199345 0 0 0
496 1 -5.74847018928852 -1.6089157114246948 -4.588558001333224 0 0 0
9 1 -1.8441214311521161 -1.0088275381804568 -4.490149161254434 0 0 0
149 1 -13.42480494418281 -11.19622046934354 -1.7767144423157823 0 0 0
160 1 -3.5803293603800252 -6.83265730555794 -0.36944950721327885 0 0 0
30 1 -1.8971489663831793 -2.811569185252109 -2.857342720446285 0 0 0
114 1 -11.244465648438158 -13.476895968946897 -0.9795391675570482 0 0 0
141 1 -9.278754826407205 -11.53558415494317 -0.9262979782346967 0 0 0
106 1 -7.239560593168824 -12.947269696652482 -0.9170346265856022 0 0 0
133 1 -3.2619294497055655 -10.974903200114234 -2.6237883106426825 0 0 0
108 1 -5.249446249829246 -11.4042952266396 -0.5571669246860225 0 0 0
380 1 -3.1380930849797597 -12.586661293868886 -0.708201292502169 0 0 0
91 1 -1.257494005730731 -12.286105276595912 -2.584478896243173 0 0 0
93 1 -1.1785327142840512 -11.211296075152779 -0.34970819168601075 0 0 0
177 1 -13.3306325667745 -8.25378446089067 -1.3498160837269513 0 0 0
142 1 -11.346514823982941 -9.650171326758716 -1.5770795391755161 0 0 0
453 1 -11.577257536363012 -6.760331259473865 -1.128258302168705 0 0 0
435 1 -9.322184874102188 -8.661339775951852 -0.5986651675809505 0 0 0
136 1 -7.337943805194267 -10.110070006980365 -0.33378591451723416 0 0 0
167 1 -7.374961019086286 -8.249026827182952 -2.492530028255848 0 0 0
163 1 -5.384146970340545 -8.444986425100407 -0.5154492924571699 0 0 0
134 1 -5.3559608925221145 -9.5001043474129 -2.698657873351939 0 0 0
161 1 -3.3779211408101517 -7.906621249090609 -2.640219465377937 0 0 0
132 1 -3.275663215501387 -9.74642835949792 -0.4025287115495182 0 0 0
162 1 -5.533034110394929 -6.571400021367231 -2.656601136824163 0 0 0
188 1 -3.6474950857513715 -3.0625863971425122 -0.9112175799628908 0 0 0
72 1 -1.3397549315103117 -9.503589919092146 -2.0665159366354438 0 0 0
454 1 -11.659474116045843 -3.8208781282011053 -0.7642822784868457 0 0 0
449 1 -13.586917204553867 -5.434966677827468 -0.9139364692958303 0 0 0
169 1 -9.577814943920428 -6.605353614629065 -2.8130542115557198 0 0 0
197 1 -9.630037874369716 -3.5637956665171426 -2.8365873762206935 0 0 0
466 1 -9.52687194519538 -5.052326143057526 -0.9498181175294924 0 0 0
195 1 -7.386766903909604 -4.77821931360079 -2.7651879538889013 0 0 0
164 1 -7.423025856487279 -6.302021040468738 -0.9951768648148764 0 0 0
192 1 -7.654243759853981 -3.466197141443045 -0.6549580150154881 0 0 0
190 1 -5.484656018850789 -4.656564753049182 -0.8701673320110306 0 0 0
189 1 -3.4953036091525806 -4.990222722039915 -2.4363829996147928 0 0 0
159 1 -1.3596254622398334 -6.874470846831939 -1.6168766466801365 0 0 0
187 1 -1.5948985736967032 -4.2467707884062715 -1.0834355075424735 0 0 0
226 1 -13.892932967449898 -1.0633938609988256 -2.5064410581202754 0 0 0
450 1 -13.8446699553372 -2.621649133352424 -0.6407185263790538 0 0 0
198 1 -11.78600161673973 -2.250516922581623 -2.651751333593415 0 0 0
452 1 -11.97544130461726 -0.9804465804289482 -0.4583209938051862 0 0 0
456 1 -9.81642086209521 -2.2356807871715976 -0.6164290623669899 0 0 0
225 1 -10.015529160416174 -0.6194927257925986 -2.4518534730052615 0 0 0
223 1 -7.786409485678023 -1.9102683063371462 -2.5675797444606765 0 0 0
457 1 -8.006588398652 -0.550011941566007 -0.47871807919135456 0 0 0
216 1 -5.910799275682717 -0.1614974209802451 -2.466340854615243 0 0 0
219 1 -5.746765123284259 -1.7149423369137793 -0.66909530557934 0 0 0
221 1 -5.557167286742944 -3.1666697856899706 -2.698761571546081 0 0 0
759 1 -3.889609709564743 -0.17543679522399458 -0.5530553337094375 0 0 0
217 1 -3.745105691542417 -1.469755604387915 -2.6510231308782632 0 0 0
493 1 -7.892961960218596 -0.07236665014348986 -8.389714586078224 0 0 0
97 1 -7.052825197577279 -13.645160550444427 -7.245674150719598 0 0 0
727 1 -12.09876701354139 -0.047075765314939844 -12.348314540123248 0 0 1
2 1 -9.863630710488433 -0.08626760393813449 -10.409965095497435 0 0 0
473 1 -11.490689168102097 -11.21013169263506 -0.02140805164820314 0 0 0
1345 1 -13.405130859815422 -11.559753827364556 2.003124342155221 1 0 0
428 1 -11.218664058513271 -12.591122281390103 1.8173894713453738 0 0 0
434 1 -9.47217344058554 -10.605234752562717 1.4975658776457248 0 0 0
914 1 -11.032203647041223 -13.639028331415634 9.776075772373744 0 1 0
135 1 -7.211034014035898 -11.949429888009002 1.6015542944059131 0 0 0
412 1 -3.196433966543962 -11.618781608378853 1.5214056399023477 0 0 0
107 1 -5.165686843817703 -13.188587419371121 1.4051804020055965 0 0 0
440 1 -5.298568161995526 -10.410448813035776 1.721262074589017 0 0 0
104 1 -1.2749207922121144 -12.89208290548349 1.4765797540806673 0 0 0
421 1 -13.351010068300983 -9.793335066074157 0.4019794902371281 0 0 0
1356 1 -13.441174497498643 -7.053680157983518 0.7280374724023204 1 0 0
423 1 -13.472895443996244 -8.544585550654482 2.642145380385916 0 0 0
472 1 -11.308268962361323 -8.354075006798372 0.6419445212098793 0 0 0
471 1 -11.469500789878065 -7.020671535260845 2.8693614157662957 0 0 0
429 1 -11.673049394024162 -9.970083193287053 2.436711168609552 0 0 0
431 1 -9.558538956735447 -8.252983014114964 2.478019167491638 0 0 0
463 1 -7.3350131239479115 -7.85327980709327 0.7635121364643318 0 0 0
406 1 -7.48910983511331 -9.490268858364672 2.3299013291600303 0 0 0
444 1 -3.45545041214414 -8.671554776859024 1.8474834785804255 0 0 0
441 1 -5.4788514353563365 -7.694784966335898 2.6093453507006714 0 0 0
381 1 -1.1998791000492766 -10.162349607931077 1.8654825597850504 0 0 0
419 1 -1.5481067227833964 -7.380977673814852 2.5166177838582087 0 0 0
131 1 -1.445652992055079 -8.356765537151393 0.3232943292013495 0 0 0
470 1 -11.658637366492922 -5.470269765029993 1.0133121696909022 0 0 0
1238 1 -13.87697855975155 -4.1769350559142815 1.103301009683335 1 0 0
467 1 -9.475696430089517 -6.661810675332083 0.8172457371116728 0 0 0
464 1 -9.77831246300553 -3.7828711975436313 1.1978358301219334 0 0 0
462 1 -7.600202575879026 -5.007313429441014 1.0653617892932932 0 0 0
191 1 -5.577721260471693 -6.1918816795868254 0.9482085996120801 0 0 0
445 1 -3.5266080935628903 -4.515506409060855 0.8951743067211009 0 0 0
414 1 -3.605576334351559 -6.150663118461645 2.6066768829451092 0 0 0
418 1 -1.4400193339892322 -5.74320892133018 0.7000784244619904 0 0 0
458 1 -14.014376487429496 -1.4088159231070652 1.4801944559746012 0 0 0
451 1 -11.893242079579224 -2.5645817127514174 1.3412234723908707 0 0 0
455 1 -10.027012187087628 -1.0369042691923855 1.4700667258748545 0 0 0
460 1 -5.751218803441077 -3.465899385025887 1.238000809894439 0 0 0
461 1 -7.915597347128755 -2.2224086602715047 1.4350211716388959 0 0 0
262 1 -5.9614286158578 -0.5814807383775698 1.4822450159773872 0 0 0
459 1 -3.8972933871732227 -1.8763484509413502 1.286684837010947 0 0 0
446 1 -1.7795503691091952 -2.878757788688251 1.0503866735009986 0 0 0
255 1 -2.0737620710861684 -0.25999509465975024 1.5314014349085774 0 0 0
422 1 -13.174496459006802 -13.284938765482774 3.7530581813256347 0 0 0
394 1 -13.375286175468613 -10.362450073585133 4.283929487499961 0 0 0
399 1 -11.399475306798042 -11.624733820739959 3.9047154970930436 0 0 0
405 1 -9.220371677088764 -12.560279162312522 3.6239269852278397 0 0 0
407 1 -7.264140864221825 -11.173865491617356 4.0548235718898376 0 0 0
292 1 -1.7868424361435054 -1.6400798345517877 13.634782627093955 0 0 0
709 1 -3.0495861597060365 -13.462930336917369 3.568332604874449 0 1 0
411 1 -5.130361288910207 -12.183751189626161 3.6711327191457848 0 0 0
417 1 -3.18804660149657 -10.565479124173066 3.8106164780100116 0 0 0
382 1 -3.0120359181955507 -12.322756517657922 5.630286568884433 0 0 0
713 1 -1.0506561454940169 -13.500505438620422 5.578210541433126 0 1 0
361 1 -1.1408944810110722 -11.853548441362422 3.7321577692788033 0 0 0
1214 1 -13.581784390539639 -7.323094799171712 4.758870414367589 1 0 0
430 1 -11.449163637322185 -8.64985474192413 4.623529878804739 0 0 0
436 1 -9.485336941376223 -9.860332230630734 4.3179986149091825 0 0 0
438 1 -9.563394936113617 -7.0995055209791555 4.7202069356142005 0 0 0
408 1 -7.406971482495171 -8.373105397812946 4.591284851777548 0 0 0
413 1 -5.360459464906533 -9.440878109475246 4.133515726599008 0 0 0
415 1 -3.395918693058979 -7.835931565279146 4.424148390441669 0 0 0
383 1 -1.2709924646283994 -8.967784962175365 4.151905704569401 0 0 0
1358 1 -13.609225435170444 -5.828108480727711 2.903052339659922 1 0 0
468 1 -11.788943714415097 -4.197916390432361 3.1224046789469853 0 0 0
469 1 -11.725253624750634 -5.906311177869283 5.006052698951432 0 0 0
474 1 -13.738068999993633 -4.560542629370779 5.154701490398331 0 0 0
465 1 -9.69467836195377 -5.452628365915098 2.976278939064123 0 0 0
433 1 -9.740069262357029 -4.206320904978078 5.047843941732307 0 0 0
437 1 -7.610078163832377 -6.6723741431351336 2.916513551153855 0 0 0
439 1 -7.7639178089945915 -3.6948862103242064 3.135755521309761 0 0 0
336 1 -7.620665266687043 -5.440786290765541 4.917051316351873 0 0 0
251 1 -5.769632981097942 -3.792664057938648 5.258171106431881 0 0 0
410 1 -5.360810374073594 -6.564158267982963 4.840443647103946 0 0 0
442 1 -5.667521304331004 -5.021435628900445 3.1013807051385776 0 0 0
341 1 -3.574209873397052 -5.025374344796063 4.902299943464961 0 0 0
443 1 -3.854788382867641 -3.470919123123272 3.1244036250880036 0 0 0
420 1 -1.5618081681070226 -4.509547141057187 2.96808340431064 0 0 0
416 1 -1.5409544747446375 -6.29686999670406 4.700281629373805 0 0 0
256 1 -11.78612995207736 -3.0699526940708672 5.352678931397762 0 0 0
261 1 -12.085676287062293 -1.268115093513023 3.445424015097686 0 0 0
1215 1 -13.906674542670444 -3.0360871515498147 3.264132685748521 1 0 0
1217 1 -13.942624909926682 -1.8177843966087153 5.471226090154577 1 0 0
315 1 -3.8776941305386785 -1.5929178215060684 11.651237444980989 0 0 0
249 1 -9.877288668390285 -2.5729767099372456 3.415885834504909 0 0 0
785 1 -10.00680740490861 -1.5205801284927354 5.5889966233299795 0 0 0
799 1 -7.997997600364074 -0.9084443337052317 3.509237368547552 0 0 0
800 1 -7.872076066685221 -2.683254271818571 5.359918817930637 0 0 0
252 1 -5.874812852681858 -2.175051148020314 3.310232365898095 0 0 0
253 1 -6.069131770583462 -0.9357422772439854 5.485206156677133 0 0 0
746 1 -3.8860833732453344 -0.4518841806356928 3.5193203902948014 0 0 0
342 1 -3.8465408989172474 -2.0207019921961837 5.517757748703662 0 0 0
346 1 -1.7230186767500335 -3.395689849664965 5.071278441819075 0 0 0
254 1 -1.7845031820432933 -1.7915473889382287 3.367841006805751 0 0 0
347 1 -1.9448207359768155 -0.5299472944243018 5.690967507200881 0 0 0
424 1 -13.232237102145618 -11.846125036322514 6.04116843755391 0 0 0
397 1 -13.200578095271863 -10.68357826759814 8.340227113796757 0 0 0
1239 1 -14.166941988452043 -0.21054625649640712 3.7587712161386975 1 0 0
395 1 -11.049459232823025 -13.104281469090438 5.821614991810716 0 0 0
368 1 -11.143016963146774 -11.99098983886611 8.004003786045093 0 0 0
400 1 -9.174710061768998 -11.614985928407133 5.965177001343381 0 0 0
913 1 -9.111522349506359 -13.136738842271669 7.810461160887542 0 1 0
371 1 -7.178696376236702 -12.71112299870463 5.8805778848526415 0 0 0
372 1 -7.312502444256654 -11.685648968701425 8.112974107591999 0 0 0
377 1 -5.214464216653045 -11.107068370692183 5.982843559060232 0 0 0
376 1 -5.086150802699786 -12.54348575038622 7.843016191544823 0 0 0
378 1 -3.108560413146293 -11.005153850154436 8.010485904604593 0 0 0
309 1 -3.7550699767880094 -3.3764325237882513 13.534920347082803 0 0 0
363 1 -1.0138021622976972 -12.2983468015121 7.7989658143357765 0 0 0
362 1 -1.3377556257605754 -10.668060049661579 6.090259129292583 0 0 0
425 1 -13.317614776089455 -8.994034178833214 6.4260545787291505 0 0 0
432 1 -11.50014613927655 -7.485132307214277 6.798789679293947 0 0 0
396 1 -11.3769365410329 -10.450407361103494 6.200732029160633 0 0 0
402 1 -9.193596425076258 -10.3944077963254 8.256817656366529 0 0 0
401 1 -9.360846334808175 -8.76766113825798 6.604369098679875 0 0 0
409 1 -7.288114487268304 -9.985066825652625 6.284420856416872 0 0 0
403 1 -7.519154656854026 -7.118932692984189 6.739053036454077 0 0 0
379 1 -5.377736079056367 -8.298398110363781 6.564019302772941 0 0 0
384 1 -3.3118847002265976 -9.497063850415163 6.315350496125088 0 0 0
374 1 -5.369182630681877 -9.898004652799534 8.421209158353847 0 0 0
385 1 -1.4026945345962076 -7.814628587180903 6.654178616473505 0 0 0
364 1 -1.2916549450014898 -9.528901670757552 8.262805946029676 0 0 0
427 1 -13.602312304283652 -6.286423127915454 6.882914946473356 0 0 0
244 1 -11.816431370714731 -4.696181754244986 7.090366652089866 0 0 0
239 1 -13.971769290276747 -3.465455504732949 7.340126026356003 0 0 0
330 1 -9.610050497382556 -5.879378539800659 6.923185481878146 0 0 0
337 1 -7.724366434173351 -4.387273626994226 7.269146790915212 0 0 0
306 1 -5.541536506165201 -5.528441256972041 7.051799841732546 0 0 0
311 1 -3.4835570294779625 -6.652207403642988 6.699748378544971 0 0 0
312 1 -3.704722297085679 -3.932574755021312 7.199597130048829 0 0 0
320 1 -1.5551118633005316 -5.026749416833146 6.922687371562901 0 0 0
258 1 -14.01421024219315 -0.7388273811434196 7.70135659223849 0 0 0
259 1 -11.999777994051534 -0.1607103634861744 5.72269374685683 0 0 0
260 1 -11.964793575808574 -1.9298821564380475 7.5926617886761 0 0 0
248 1 -9.853488626515016 -3.1100718612016074 7.447302287903032 0 0 0
731 1 -10.076090953427736 -0.18980473510169915 7.781993037152784 0 0 0
250 1 -7.804766153700323 -1.5460683756498597 7.704612975956049 0 0 0
343 1 -5.743422012069644 -2.7592300891781942 7.512793720745577 0 0 0
344 1 -3.922627701628029 -0.9929408946635228 7.706598423748424 0 0 0
348 1 -1.8742419497458531 -2.2024701087171987 7.497397653993659 0 0 0
896 1 -13.01706910780744 -12.32597708343131 10.139994310201544 0 1 0
930 1 -9.121091781886916 -13.408105491597237 1.2091303196138128 0 1 0
370 1 -11.035433358891382 -10.715110094698888 10.289981109030148 0 0 0
369 1 -9.133437505521982 -11.991758525185443 10.18883110313789 0 0 0
866 1 -6.988402063354447 -13.179351464836136 9.852414776097294 0 1 0
357 1 -5.181057851625859 -11.461968077739165 10.265452756908466 0 0 0
359 1 -3.1370651428021095 -12.586266162954757 9.877126329787504 0 0 0
274 1 -1.2106170135063898 -11.13978679286601 10.014171014060896 0 0 0
426 1 -13.382744020031508 -7.947908872829153 8.755321357946492 0 0 0
393 1 -13.235075847944263 -9.605933624714284 10.457816362509153 0 0 0
295 1 -11.407261718870924 -8.053849348360659 10.778336628520382 0 0 0
324 1 -13.456417701582314 -6.8448051851139 11.006711659577569 0 0 0
398 1 -11.427982210752878 -9.15600052387028 8.520910711239633 0 0 0
296 1 -9.388625183282162 -7.427334133238469 8.738488315137083 0 0 0
278 1 -9.218591910052634 -9.321239036762245 10.761535219620693 0 0 0
299 1 -7.454101796899949 -8.658887661810464 8.613049160129691 0 0 0
373 1 -7.199043134261783 -10.399250606035594 10.430254556591251 0 0 0
279 1 -7.36555952627426 -7.6252013863871255 10.85332470413784 0 0 0
287 1 -3.4115781254771615 -8.394534070124847 8.696358781572155 0 0 0
305 1 -5.482262538921045 -7.203565135175216 8.823837561407604 0 0 0
360 1 -3.174935637016473 -10.015702444722146 10.575280151709702 0 0 0
283 1 -3.4607447600401127 -7.280974658257383 10.905161160752321 0 0 0
282 1 -5.313422932346208 -8.895271365807556 10.710475580647422 0 0 0
288 1 -1.3254539768000058 -8.344272984794394 10.495873409927142 0 0 0
238 1 -13.603713988605973 -5.225027616443681 9.203430934328221 0 0 0
243 1 -11.522674250525816 -6.264332592058478 8.90123057114991 0 0 0
245 1 -11.773779638897864 -3.5135287178149746 9.391678026616919 0 0 0
326 1 -11.627833135637264 -5.323436796130183 11.227266513282512 0 0 0
325 1 -9.609179813307108 -4.880083436676715 9.249452107686622 0 0 0
301 1 -9.534924103250175 -6.48251377527208 11.099214240226281 0 0 0
300 1 -7.480548957162437 -6.012881569749739 9.140422044917251 0 0 0
338 1 -5.655547379086007 -4.482362311837253 9.296810279726792 0 0 0
313 1 -3.660704181962455 -5.582588239806675 9.034443276739697 0 0 0
307 1 -5.47640778847763 -6.088183612969213 11.23096491681704 0 0 0
318 1 -1.4990995889896919 -6.805961518836503 8.72543812140189 0 0 0
290 1 -1.6819358012143866 -4.01587359400367 9.228221311424619 0 0 0
289 1 -1.5371974990598982 -5.727702189260776 11.055533273728173 0 0 0
1218 1 -13.819536755196658 -2.265629806960355 9.567402468572205 1 0 0
728 1 -12.024555653836885 -0.6931360444308527 9.821119009572932 0 0 0
333 1 -9.813733600788382 -1.989493550327083 9.646486287738565 0 0 0
331 1 -7.71704504130403 -3.1481467345396776 9.538369034656213 0 0 0
732 1 -8.034338984358744 -0.22566373198022127 9.838020963360037 0 0 0
339 1 -5.859716256929252 -1.5179148514364886 9.69268234095195 0 0 0
314 1 -3.782425729271896 -2.817402868746683 9.41188761559441 0 0 0
322 1 -1.8615916173320706 -1.0541569157202488 9.68845792456247 0 0 0
293 1 -13.087291081506054 -11.257383140696147 12.321979098533568 0 0 0
130 1 -13.250385498699979 -12.943328047055896 13.979216420197766 0 0 -1
1320 1 -1.7551828990432465 -2.794425641039675 11.480847403666463 0 0 0
367 1 -11.178156195947382 -12.427237877548933 11.923874750841776 0 0 0
276 1 -9.145594907710265 -11.18421167879147 12.610617491774295 0 0 0
96 1 -7.0798914629537055 -13.56962141621242 13.752679261131458 0 0 -1
355 1 -7.029085890686474 -12.016881484982552 12.09702292252004 0 0 0
877 1 -5.012051164024639 -13.222919749472506 11.938917227030029 0 1 0
269 1 -5.025089510589252 -10.741562651983589 12.805709432418865 0 0 0
99 1 -3.0400321680580564 -13.120048128935862 13.884675916481836 0 0 -1
270 1 -3.016618255604577 -11.627199501920021 12.2738678307534 0 0 0
266 1 -1.1795358271850755 -11.453075698071082 13.987904337442995 0 0 0
265 1 -0.984870452901383 -12.68543323264062 11.841477070798387 0 0 0
294 1 -13.256383615052094 -8.543912770747134 12.80795930252783 0 0 0
297 1 -11.225014480191373 -7.001442354564387 13.017165297318652 0 0 0
275 1 -11.166113822250392 -9.82977241835477 12.667139751762441 0 0 0
277 1 -9.288517837892543 -8.277126902030528 12.95048855117641 0 0 0
267 1 -7.159418156670549 -9.531929412035977 12.876644836158025 0 0 0