LAMMPS data file via write_data, version 2 Aug 2023, timestep = 0, units = metal

1864 atoms
3 atom types

-14.378189782329116 14.378189782329116 xlo xhi
-13.802237682897648 13.802237682897648 ylo yhi
-13.778597211674194 13.778597211674194 zlo zhi

Masses

1 55.847
2 1.008
3 1.008

Atoms # atomic

1090 1 -10.309950763770969 -11.365206748651499 -10.356901054930756 0 0 0
1091 1 -10.58932163073475 -10.663133924703533 -12.629484614929833 0 0 0
1094 1 -12.66655133509341 -11.50748657829908 -10.754165372954128 0 0 0
1083 1 -9.566555691628938 -8.970744720627923 -10.647434767533055 0 0 0
1092 1 -11.900107517436505 -9.132754654495471 -11.187008053210379 0 0 0
999 1 -11.588377950394687 -9.850631501136286 -8.739835822663382 0 0 0
190 1 -11.26364417886962 -13.015249133878116 -12.226846686594612 0 1 1
67 1 -13.583099992257553 -13.248171183738602 -12.746874380929022 1 0 1
1095 1 -12.943022218194074 -10.915994341774141 -13.135178521524894 0 0 0
1689 1 -14.041823732581504 -10.110228062514041 -9.347693856315146 1 0 0
1002 1 -12.223447599943652 -12.156105311790652 -8.414604197551569 0 0 0
1082 1 -9.149005778231038 -9.70096004340757 -8.421452600423795 0 0 0
1 1 -12.284899082312347 -8.555156850910121 -13.52122364724497 0 0 1
1264 1 -10.913253605807894 -13.690963163037903 -9.910220411124055 0 1 0
1218 1 -9.877863647614266 -8.419238010709066 -13.137851504012524 0 0 0
1089 1 -8.837560705601994 -12.812558604663264 -11.877170973197458 0 0 0
1798 1 -14.272077109648619 -9.434022692340978 -11.596952147549063 1 0 0
1088 1 -8.414849939321709 -13.376288486388345 -9.541614554349316 0 0 0
1217 1 -8.197502874473372 -10.384302678705055 -12.18403107723467 0 0 0
1081 1 -7.90168900153142 -11.154350372366576 -9.80186852383969 0 0 0
1206 1 -3.9772495450991183 -12.304533627707382 -10.81762588594192 0 0 0
1207 1 -5.45187010775976 -10.924603312770714 -9.475624133242814 0 0 0
1208 1 -5.777912384508442 -10.225692818825562 -11.618725111690747 0 0 0
1215 1 -6.633868546082464 -12.587930508499655 -11.365073201827371 0 0 0
1351 1 -4.360464056281632 -11.689775486812913 -13.047824753691364 0 0 0
1209 1 -7.183789681820115 -8.719051497304093 -10.233955217543286 0 0 0
1079 1 -6.153571528026696 -13.296931160862771 -9.068849389553487 0 0 0
1195 1 -4.887381846435661 -8.473880358477539 -9.799954040444867 0 0 0
1205 1 -3.5274791006020667 -13.079884954377183 -8.45376877440889 0 0 0
1348 1 -3.7062845060746312 -9.454871878906319 -13.55706521943072 0 0 0
1347 1 -3.396406606794157 -10.094265359706961 -11.29014692009104 0 0 0
2 1 -6.696381923219788 -11.822341508981456 -13.65101315213479 0 0 1
1193 1 -3.0502607222806546 -10.671939320180986 -8.90369099739975 0 0 0
1334 1 -0.9939633710065046 -9.752068779663684 -10.666203722957587 0 0 0
1345 1 -1.618523801694474 -12.140474447803854 -10.310381282979652 0 0 0
1346 1 -1.847292411520412 -11.496408759789814 -12.841711522103472 0 0 0
1332 1 0.7532816380731759 -11.913238778382286 -9.875643742446142 0 0 0
1480 1 1.3897811922823422 -9.409022251944165 -10.204458023654936 0 0 0
1488 1 0.4177159672752371 -11.215542823445322 -12.138195438334023 0 0 0
1489 1 -1.2250360794490582 -9.231628423167585 -13.101932316597303 0 0 0
1481 1 1.0097324143817623 -8.888779260539055 -12.61808203634602 0 0 0
1333 1 -0.5640343736799895 -10.32715514867351 -8.418569348467116 0 0 0
1486 1 2.166863028945045 -13.186085001548944 -11.31456896440537 0 0 0
1344 1 -0.09778475195520286 -13.511961130094393 -11.872030340108207 0 0 0
1335 1 -2.3949981822772664 -8.34146788992112 -9.317448515222498 0 0 0
1618 1 1.8597670176364716 -12.71837906751289 -13.665754885433415 0 0 0
1479 1 2.735935254551034 -10.868309539192381 -11.513412707934513 0 0 0
1464 1 3.9560608981632583 -9.28202507413523 -9.619144404677018 0 0 0
1477 1 4.528535418874419 -13.169993068802276 -10.924463234282783 0 0 0
1478 1 3.2417726549418973 -11.55641946959391 -9.276612954644492 0 0 0
1612 1 6.980544683828725 -12.95197872926552 -10.496073851621382 0 0 0
1614 1 5.198579434361747 -10.682736421844394 -11.251566284408906 0 0 0
1732 1 7.202548603986379 -9.914848427821035 -13.19288014264895 0 0 0
1616 1 3.360034351110002 -8.529443123206278 -12.142767904240145 0 0 0
1462 1 5.555478660754208 -11.610881771109096 -9.023351408178353 0 0 0
1603 1 6.240265574383116 -9.086474664566378 -9.176688258202699 0 0 0
1731 1 6.5144695483743575 -12.310563031412048 -12.744849365727102 0 0 0
1613 1 4.221080315953451 -12.336595511201063 -13.109174642512658 0 0 0
1602 1 7.492409216624157 -10.606117944362536 -10.66703336126302 0 0 0
42 1 4.779253495315402 -9.943538402906082 -13.46330362566472 0 0 1
1604 1 5.787172584673343 -8.286358267974627 -11.677872740631104 0 0 0
1601 1 7.878543022071277 -11.39235856628074 -8.454890517054974 0 0 0
1724 1 9.685479485525995 -9.810382229063187 -12.5469458575734 0 0 0
1585 1 8.57118723348518 -9.02276355669022 -8.693354201463702 0 0 0
1600 1 9.381583355400181 -12.796026265489239 -9.884552573290811 0 0 0
1708 1 12.379702646512424 -10.331926634657176 -9.727570568012876 0 0 0
1722 1 8.931989986611988 -12.007630508078556 -12.243409829911123 0 0 0
1723 1 10.02452449197975 -10.447263335526031 -10.265140002331695 0 0 0
1808 1 12.056705671114294 -9.436474859930968 -12.166708011918574 0 0 0
1721 1 11.731902752404967 -12.637974178473822 -9.443878309693662 0 0 0
1811 1 11.361735442353364 -11.825465016515805 -11.642520379564584 0 0 0
406 1 12.720140052778902 -13.397515959551725 -13.341890024723929 0 1 1
1807 1 13.464758528903648 -10.939435551721612 -13.597664678179662 0 0 0
1709 1 10.958537103558733 -8.596115067807377 -8.184977601313731 0 0 0
584 1 10.270118750522542 -13.489064929568935 -13.711607815760226 0 1 1
1725 1 8.22905025713905 -8.254644844605735 -11.125449874533627 0 0 0
1806 1 13.811591262059498 -11.632688734471358 -11.366007042600465 0 0 0
1706 1 14.103058315043402 -12.4575898829694 -8.949182084606763 0 0 0
1001 1 -13.41984986267581 -7.7025585761021045 -9.714776598349411 0 0 0
1093 1 -13.60079111891415 -7.117463227646029 -12.081485197407163 0 0 0
1075 1 -10.375494097615675 -5.21668019298394 -9.71108792203148 0 0 0
1085 1 -11.183995184855721 -6.803986289524358 -11.704501076769038 0 0 0
1086 1 -12.796941924428518 -5.235145081767133 -10.193267972594338 0 0 0
1087 1 -12.962244333776676 -4.716642615694379 -12.509192483968125 0 0 0
1213 1 -10.652305151952998 -4.495141627343813 -12.036453797478789 0 0 0
1084 1 -10.95075548374986 -7.556037878902414 -9.383967140595086 0 0 0
1077 1 -12.065387549155112 -3.0686123256687257 -10.628369197348714 0 0 0
22 1 -9.214819333379054 -6.12072125405055 -13.53553506187548 0 0 1
1200 1 -9.764645221153472 -2.8515732820850825 -10.046268538471509 0 0 0
1843 1 -14.019327333098111 -3.9557995415109115 -8.727144471268424 1 0 0
1076 1 -11.694820257243613 -3.6153535656185447 -8.18527852740773 0 0 0
1211 1 -8.888153801283593 -6.579784099423897 -11.344951185221884 0 0 0
1210 1 -7.4190676787095065 -8.089626424868342 -12.672861341015885 0 0 0
1349 1 -5.098509566749975 -7.882747221949973 -12.22300760542747 0 0 0
1073 1 -8.666735145604363 -7.263876155579909 -8.721859819851721 0 0 0
1199 1 -8.194654379717448 -4.340633906678102 -11.571040163668787 0 0 0
1197 1 -6.541616699537739 -6.366974361158773 -10.690584343829332 0 0 0
1337 1 -4.161694588598621 -6.26669504313815 -10.086235059346432 0 0 0
1338 1 -4.432090522769309 -5.521791046440256 -12.496110177639627 0 0 0
1339 1 -5.74924418378035 -4.044075164573156 -10.983527671475077 0 0 0
1350 1 -6.792962210921374 -5.744505973848051 -13.096321000068649 0 0 0
1198 1 -8.025358755594166 -4.892122911883028 -9.256124684166604 0 0 0
1181 1 -5.438058700658905 -4.774891363309752 -8.81271201990672 0 0 0
1485 1 -3.605341561635404 -3.1681533032366858 -12.777104854738026 0 0 0
1340 1 -6.078713215637604 -3.3205195811206867 -13.377883382864708 0 0 0
1322 1 -3.373617711007128 -3.824686085267974 -10.483710561339452 0 0 0
1196 1 -6.2492937733821865 -7.074524879803071 -8.406268385682578 0 0 0
1318 1 0.024650436812848397 -8.083873515325088 -8.76943134837159 0 0 0
1336 1 -2.6821706758207657 -7.737985613589815 -11.679670918163655 0 0 0
1482 1 -0.259013265082519 -7.41073213466575 -11.253779535905903 0 0 0
1320 1 -1.6766736383410255 -5.944476128420882 -9.618472073404014 0 0 0
1484 1 -2.038617850214999 -5.297839986008203 -11.957113667684427 0 0 0
1468 1 0.42222392572437073 -5.0743015216247045 -11.46278841769915 0 0 0
1617 1 1.8038531056758558 -6.4248871826617355 -13.026884687284095 0 0 0
1448 1 1.3767416240753576 -3.300685937106664 -9.379831917685376 0 0 0
1467 1 0.66093812629917 -5.622830899070596 -9.078852742068445 0 0 0
1470 1 -0.9816972118283829 -3.643191648392346 -9.924410969305729 0 0 0
1483 1 -0.7145576401349718 -6.738002494557032 -13.527264724580174 0 0 0
18 1 -1.2251352391077646 -3.069080292931762 -12.449489225249788 0 0 1
1466 1 2.145631722180834 -7.131283479955479 -10.529046493190753 0 0 0
1609 1 1.0924937231537832 -2.7927409672410075 -11.86367446947297 0 0 0
98 1 0.09937858833115065 -4.544379886734882 13.769378619364444 0 0 0
1608 1 2.5078232584793163 -4.155493366272763 -13.353387880026354 0 0 0
1607 1 2.8890702300054336 -4.750461194151525 -10.922527347864094 0 0 0
1587 1 6.871171807066467 -6.795755738667704 -9.555241842048444 0 0 0
1589 1 5.3601608093777635 -4.5218225446296625 -10.390129779209852 0 0 0
1605 1 4.524366674778012 -6.926260167997743 -10.128076195673945 0 0 0
1606 1 4.096967038668019 -6.197150747147939 -12.47118914956877 0 0 0
1714 1 7.406465077007219 -3.7722983910488637 -12.320068483582563 0 0 0
1727 1 6.545073657925773 -6.0497505245928185 -11.85663163397649 0 0 0
1728 1 5.04462163040461 -3.8214278900183594 -12.762771113852262 0 0 0
1590 1 4.0259700994641925 -3.194340609121854 -8.884451566957408 0 0 0
1446 1 3.238757576316207 -5.474417536220129 -8.565902197353775 0 0 0
1713 1 7.720199720607923 -4.500006491426312 -9.94855824520386 0 0 0
1566 1 6.439360588404636 -3.046397438072665 -8.414099184301044 0 0 0
1726 1 7.834140205741392 -7.500261146897876 -13.450337614388909 0 0 0
1465 1 2.5894060326905475 -7.690048091280516 -8.168437922184966 0 0 0
1710 1 10.549366681517935 -8.085924633383634 -10.562468332009885 0 0 0
1693 1 10.115716890224181 -4.263274927936994 -9.244102347565669 0 0 0
1712 1 9.021939897270443 -5.944203950636306 -11.52683653286564 0 0 0
1800 1 12.575028346791104 -7.135495961483611 -12.609434105204171 0 0 0
1801 1 11.28530744099129 -5.738278926953791 -11.033360450240236 0 0 0
1809 1 10.296811970445027 -7.456289608999154 -13.166279470505327 0 0 0
1803 1 9.678318412543849 -3.6422333567818086 -11.903792667014377 0 0 0
1691 1 11.600067765636112 -6.140797669725189 -8.598172329583505 0 0 0
1711 1 9.22768596116153 -6.626790575502355 -9.048043503477054 0 0 0
1790 1 11.883627667041331 -3.4019294124030655 -11.092921432047806 0 0 0
1799 1 12.97163803958071 -7.906905322253739 -10.144737528393826 0 0 0
1802 1 10.960717509251012 -5.120079713677356 -13.416360459666357 0 0 0
1848 1 13.311088928154216 -5.005419913571847 -13.018709503244406 0 0 0
126 1 11.627747578215452 -2.9410491781690613 -13.735361912809969 0 0 1
1773 1 12.45184691482967 -3.4796812596055506 -8.430016472117616 0 0 0
1844 1 14.325026958257876 -3.2344102080833057 -11.119254755080544 0 0 0
1788 1 13.649926581912851 -5.45984948015167 -10.592649598715393 0 0 0
12 1 -12.430857178819595 -2.3904576449246786 -12.827843841385194 0 0 1
1212 1 -9.904829246781354 -2.2219903861609875 -12.414436301532998 0 0 0
1201 1 -9.213926857806669 0.1203798728020331 -12.706604823614505 0 0 0
1202 1 -11.413763791627654 -0.8426441643427864 -10.943189287757894 0 0 0
1066 1 -12.994726545874174 0.6383802588418259 -9.641624892718381 0 0 0
1187 1 -10.696530708003408 1.581527741909884 -11.414343325542738 0 0 0
1204 1 -13.083587000842536 1.498412557099023 -11.866075843309163 0 0 0
1186 1 -10.396370481830374 0.9385893489416919 -9.070188145489055 0 0 0
1214 1 -13.80119233205835 -0.870772284307284 -11.469092388404588 0 0 0
1203 1 -11.613420111433008 -0.10898108687341157 -13.241702143116955 0 0 0
1064 1 -11.065627748698766 -1.4066444228959085 -8.589568267987179 0 0 0
1078 1 -13.564741669928175 -1.69312343757335 -9.124135485100112 0 0 0
1185 1 -8.992610710749215 -0.6051808279670734 -10.464916190799975 0 0 0
80 1 -11.036768769261336 2.346988009338993 -13.758631000608233 0 0 1
1183 1 -7.358809098586127 -2.7019324248157606 -9.75298710615834 0 0 0
1327 1 -8.597343453489488 2.4434494804085993 -13.223205501145896 0 0 0
1303 1 -4.876404189079517 -2.316649704089734 -9.020872080964786 0 0 0
1341 1 -7.565140649632544 -1.9978188513814317 -11.990734901116596 0 0 0
1324 1 -5.135999001063235 -1.7139064024292576 -11.457689033652072 0 0 0
1325 1 -3.9926347345455664 -0.08961005052534077 -9.388648660717045 0 0 0
1326 1 -6.8397956704955964 0.2642005757393022 -12.241830361921346 0 0 0
1305 1 -8.480874349866724 1.8028171684586631 -10.693165466269352 0 0 0
1455 1 -6.460142262841369 -0.4264155768699691 -9.915006783366445 0 0 0
1474 1 -5.922664765868202 1.9740470531173777 -10.37073864873931 0 0 0
1473 1 -4.384287692857971 0.6142797073750064 -11.788205819779346 0 0 0
223 1 -3.4699884175900397 2.2608996797155108 -9.870730075092254 0 0 1
1165 1 -8.038618338292203 1.0196496419279377 -8.557398637525868 0 0 0
222 1 -6.215608703954853 2.7095240157418026 -12.67938238257968 0 0 1
239 1 -3.7411106149190907 2.8681365797273948 -12.261552988555671 0 0 1
1610 1 -3.0054766518666796 -0.8806833378974446 -13.292368629171436 0 0 0
1469 1 -0.3253197049811458 -1.3636618432162528 -10.430810121795687 0 0 0
1471 1 -2.6531686017974163 -1.67972346241201 -10.774896930220528 0 0 0
1595 1 -2.020956145798827 0.7942073354253569 -11.263320203718887 0 0 0
1594 1 -0.5535113907210825 -0.6514691737450669 -12.688129416287175 0 0 0
1451 1 -1.7545585229629594 0.24039707060955529 -8.862102812953777 0 0 0
1573 1 0.44560650187215955 1.0368345017628489 -10.736620988264823 0 0 0
1450 1 -0.007424484878718829 1.63402406374124 -13.293112865820081 0 0 0
1428 1 -1.1472981885847187 2.5127782368358353 -9.299477588716567 0 0 0
1593 1 1.8284370499520506 -0.46115390371720544 -12.047847878526882 0 0 0
1426 1 0.7862353380276268 0.37117936767521265 -8.288246348241056 0 0 0
1301 1 -2.335457600944247 -2.1485302067457663 -8.57168300489689 0 0 0
1571 1 1.3082421513654747 2.703149239662075 -8.827940187248705 0 0 0
1592 1 2.193385431295699 -1.0467558455917452 -9.771288474625704 0 0 0
397 1 -2.435506958883437 1.4311361676805596 -13.612544079505208 0 0 1
1570 1 2.35217959759035 1.9212537393710463 -12.615198155814507 0 0 0
1591 1 3.628252019184931 -2.4405951501801333 -11.180348082824462 0 0 0
206 1 2.7643877438488147 1.3114995120561161 -10.001508372238188 0 0 1
1568 1 4.800057908062282 -0.7746795705324256 -9.318009304141189 0 0 0
1697 1 7.233321980552791 2.4141988236114678 -11.610109434976868 0 0 0
1696 1 5.3946956672264434 1.6241189093728252 -9.657413038481558 0 0 0
110 1 6.126227927407861 -2.2276704240067655 -10.76483972952487 0 0 1
1675 1 6.861444863787312 0.16443516364911837 -11.017411457497033 0 0 0
1716 1 4.354772997083963 -0.17104076939429014 -11.50236478571681 0 0 0
95 1 5.601130337535405 -1.589757079970271 -13.168732326768062 0 0 1
1717 1 4.801283017572935 2.127080685970446 -12.039692216801939 0 0 0
1542 1 7.330249349313085 -0.56249723136626 -8.74218666485162 0 0 0
1794 1 6.238284469338996 0.6125232178745961 -13.521602260782144 0 0 0
1804 1 7.8722942542162215 -1.5416019926412794 -12.532016442225318 0 0 0
1657 1 8.207463598307378 1.691459307149211 -8.87931409915734 0 0 0
1715 1 8.722998420439286 -2.1595060891686995 -10.135743454819316 0 0 0
1793 1 8.500055772438248 0.7482530007495765 -12.992193665679952 0 0 0
1791 1 11.111330105327209 -1.3296133691116427 -9.197497611995853 0 0 0
1792 1 10.196710613595595 -1.293424994775469 -12.045017543023643 0 0 0
1846 1 10.848224425862298 0.9428080134168226 -12.682672894452457 0 0 0
1849 1 12.597606692925563 -1.183958982817467 -11.939596793395998 0 0 0
1674 1 9.36143880194319 0.16056263436926166 -10.280135774455685 0 0 0
1776 1 11.068027079671452 1.3866734383388835 -8.873636185231993 0 0 0
1761 1 11.943250667763646 2.5097762872553204 -10.747780105745058 0 0 0
1838 1 9.576637117693341 2.4004962393998426 -11.25601829641084 0 0 0
1845 1 13.32572840882153 1.1325567360619821 -12.442645018896135 0 0 0
1836 1 13.189362515030293 0.2913588322829863 -9.997206073817697 0 0 0
13 1 13.921250087547712 -2.600352520042586 -13.388658779470921 -1 0 1
1188 1 14.199138556812123 2.965589825226747 -10.489270397003455 -1 0 0
1343 1 -12.288259871847497 2.99142536609774 -10.037563868753995 0 0 0
1342 1 -10.02183481864149 3.9917637699133266 -11.894031042058947 0 0 0
1167 1 -9.895611291121268 3.271096419031874 -9.29478857328591 0 0 0
1169 1 -11.424363849843619 5.398200158142256 -10.294798778569708 0 0 0
1330 1 -11.738358975663658 6.136207552136597 -12.633694171811223 0 0 0
1171 1 -13.133884690913536 7.558057730372479 -11.24662350221997 0 0 0
1310 1 -10.793773890326127 7.793732446716813 -10.571004587834365 0 0 0
1170 1 -12.90814614810676 6.790979300195463 -8.962677793802882 0 0 0
76 1 -12.407807725610787 3.828811112365713 -12.285110469674729 0 0 1
1309 1 -9.320181775254744 6.2993081688678885 -12.115968489869823 0 0 0
1189 1 -13.880595164582086 5.175109175257507 -10.71074467740046 0 0 0
1308 1 -9.097205909103222 5.577581683630076 -9.70532827630311 0 0 0
1859 1 -13.522124451856856 8.270343850959616 -13.548113576284994 1 0 0
1052 1 -13.634019282964205 4.4372859124554935 -8.408275407005485 0 0 0
1863 1 -14.204572067622648 5.954249807163613 -13.125998856084566 1 0 0
1311 1 -11.176714906126719 8.549321226475335 -12.852763994305493 0 0 0
1147 1 -10.509034371762993 7.072159882620795 -8.32875680617176 0 0 0
1284 1 -8.391819114603294 7.847975310861653 -10.246867638067629 0 0 0
1307 1 -7.7059531169789475 4.177521204271571 -11.272102858748472 0 0 0
1282 1 -6.712770465091827 5.7962131721164205 -9.34453082831634 0 0 0
1432 1 -5.273837926709797 4.410419381687422 -10.814416682347579 0 0 0
1457 1 -6.942976703762659 6.507123776594504 -11.682502882832068 0 0 0
1306 1 -7.454730815175383 3.476804457085734 -9.00292746635049 0 0 0
1431 1 -4.241648622362957 6.058852455243173 -8.813726305855367 0 0 0
1456 1 -4.656516293790251 6.94045577196146 -11.140806900926341 0 0 0
1453 1 -5.610584665910231 5.028401359977124 -13.141256179332407 0 0 0
209 1 -5.030158558151308 7.446019747858628 -13.6003701358052 0 0 1
1433 1 -6.055047587519832 8.27342245052068 -9.64060623699922 0 0 0
1280 1 -5.015951324216868 3.5718728000359548 -8.496160397781921 0 0 0
1407 1 -3.6566484929197483 8.415615427971765 -9.192695994678601 0 0 0
1328 1 -8.046426640345434 4.801735800396187 -13.573851808560715 0 0 0
420 1 -3.2777973152950324 5.368208561229135 -12.626428611007308 0 0 1
1575 1 -1.4225426510502626 3.165744918716779 -11.627081657210788 0 0 0
1452 1 -2.9784961172837416 4.588710191198242 -10.37159958233707 0 0 0
1597 1 -2.2660296743573323 6.935496511652534 -10.59066016466009 0 0 0
1572 1 -0.5370048411507149 4.762941129466018 -9.813075806048172 0 0 0
1550 1 -0.9426575524693757 5.556798338546898 -12.021898639233804 0 0 0
1700 1 0.9245255694165273 3.335297613292166 -11.24348818961678 0 0 0
1552 1 -2.536331094346524 7.7357108451109085 -12.956766904827328 0 0 0
220 1 -0.24746465836357423 7.834009713243809 -12.497340984501697 0 0 1
1681 1 0.15106050759824186 7.1282896097623905 -10.227527993772755 0 0 0
1548 1 1.9456579053375052 4.995725685337394 -9.274199328662734 0 0 0
1796 1 1.5192968267634956 5.633069472282184 -11.573189542022458 0 0 0
1782 1 2.202460876724917 8.067097645152678 -12.012626495522808 0 0 0
1596 1 0.4918334129219044 4.006243265494245 -13.57492344270589 0 0 0
1405 1 -1.8933536273946103 6.3093764426869505 -8.339473750711075 0 0 0
1546 1 3.7593297873165064 2.9691188403097506 -8.231146719658145 0 0 0
1797 1 2.425356430669197 7.365973558454222 -9.785762704939973 0 0 0
1698 1 5.671141441182126 3.947909764302345 -10.26210208391132 0 0 0
1795 1 5.403986594647019 4.4470329623008595 -12.69422147628504 0 0 0
1678 1 2.9724693346722795 4.355755290093587 -13.099763616777064 0 0 0
1781 1 3.9977980839116256 5.892700722548945 -11.212068138119221 0 0 0
1679 1 4.280159043637443 5.237098433862236 -8.683067925202751 0 0 0
1661 1 4.859801802381348 7.676536158590718 -9.182746854054262 0 0 0
1767 1 7.23283171400027 7.845811631342382 -8.722943133537441 0 0 0
231 1 3.310215898028808 3.4981841641444653 -10.73667579204309 0 0 1
216 1 6.242728488339257 6.1310798464638765 -10.704750523144897 0 0 1
410 1 6.023344012164177 6.825793391497989 -13.107751045443973 0 0 1
1840 1 7.747741056008344 4.707175181534282 -12.271849406933203 0 0 0
432 1 3.5511187374597633 6.8925171965126175 -13.528952378320932 0 0 1
1783 1 4.428172775567532 8.35083349213464 -11.695327739902048 0 0 0
1779 1 6.9503566909143615 8.493591184485314 -11.06330736590731 0 0 0
1659 1 6.489030544372248 5.554105722276336 -8.329199716130635 0 0 0
1676 1 8.070663955278988 3.950496515133601 -9.754622994681643 0 0 0
1655 1 10.363925841504507 3.871007658773671 -9.604787144064069 0 0 0
1780 1 8.350325580277037 7.02646770896251 -12.59158534753566 0 0 0
1766 1 8.623840604802087 6.428129260216181 -10.229839879456165 0 0 0
1828 1 12.49958204459318 4.9509294221272775 -11.28128015174321 0 0 0
1839 1 11.545271254500264 3.2497932915797385 -13.196803943460267 0 0 0
1830 1 10.80614251497661 7.161138426134876 -12.002377609332248 0 0 0
1827 1 12.69180832900075 4.18571248383029 -8.961151398460187 0 0 0
1763 1 10.108209056771585 4.921566026538905 -11.592799906421794 0 0 0
1751 1 11.035785375823817 6.457007733786895 -9.657753990588244 0 0 0
1858 1 13.157778742454752 7.298104197992046 -11.556156326281515 0 0 0
214 1 12.242840313995696 5.572823457102981 -13.550038119710562 0 0 1
1777 1 9.24524328154028 3.0415393973201112 -13.672035905496244 0 0 0
1819 1 13.363060778931569 6.659130497968835 -9.329198649189669 0 0 0
1753 1 9.662680182292483 7.998225752312138 -8.285336782524666 0 0 0
1862 1 14.013141746927399 3.4799585476136485 -12.6937101719028 0 0 0
1852 1 -13.218289905931965 13.706325017351766 -10.424191791098117 1 0 0
1286 1 -10.117570855540658 10.091651193327206 -11.050982260080255 0 0 0
1287 1 -11.556472160854046 11.57011544419072 -9.544330355985368 0 0 0
1288 1 -12.008858305772584 12.236392906300225 -11.923900304583416 0 0 0
1312 1 -12.545619556918487 9.996148810323906 -11.390702523673507 0 0 0
1437 1 -9.576398341575988 12.35734359173781 -11.515779127969525 0 0 0
1149 1 -12.149578473072093 9.159323601148365 -9.221172136142265 0 0 0
1285 1 -9.861250262460917 9.531456147205802 -8.659809583225192 0 0 0
1289 1 -13.921184076412223 11.357255673859594 -10.032303104860537 0 0 0
199 1 -10.49687303860527 10.857603256653533 -13.423571712116853 0 0 1
1262 1 -9.098362171907185 11.848985029480072 -9.206535062618494 0 0 0
1856 1 14.308503942993813 12.02639885242008 -12.37365663907173 0 0 0
1458 1 -8.772092424042988 8.64251586691454 -12.533097248247644 0 0 0
1556 1 -5.087418589090651 13.58216807435463 -12.785342628105646 0 0 0
1434 1 -6.436301822190007 8.856429850465506 -12.14529706534433 0 0 0
1216 1 -7.555825562547043 13.2961445334337 -13.220148758631886 0 -1 0
1436 1 -8.089762827610347 10.955414224638222 -12.99677926114156 0 0 0
1435 1 -7.703495682932322 10.280806658705238 -10.655902366734823 0 0 0
1409 1 -5.430455656582147 10.658620587658348 -10.110167269344167 0 0 0
1411 1 -5.900906963822516 11.151071751974147 -12.405501916780572 0 0 0
1555 1 -4.6161028732526415 12.945681091063982 -10.544929414587092 0 0 0
1412 1 -7.179263527065256 12.664787707861073 -10.973268382238363 0 0 0
1577 1 -4.155700983510151 9.132231411316429 -11.546043480986864 0 0 0
1410 1 -6.763182077799338 11.979851100393049 -8.621931884129822 0 0 0
1554 1 -3.415516083675067 11.360540170604935 -11.890765778757363 0 0 0
1260 1 -7.417925130809992 9.670628497358507 -8.282001150290817 0 0 0
1687 1 -2.5879964287523762 -13.793689016252909 -12.34583944084214 0 1 0
1551 1 -1.3508300933378816 8.66249014255688 -8.630100109734371 0 0 0
1553 1 -3.013901645135082 10.741482606288258 -9.534793443455317 0 0 0
1682 1 -1.5195436451321207 9.251458835419818 -11.001673157530082 0 0 0
1533 1 -2.1701881463333663 13.217469001149937 -9.91351474450646 0 0 0
1685 1 -0.9998487681928516 11.647233541137123 -11.408412976343314 0 0 0
1665 1 1.3833522542996377 11.859763805412637 -10.943177104091438 0 0 0
1683 1 -2.084744030383618 10.0523575520692 -13.339043367027312 0 0 0
1667 1 1.0438614657106804 12.586428964341813 -13.306897235588542 0 0 0
1666 1 0.2069644763191647 13.359686972949543 -9.49940407731604 0 0 0
1531 1 -0.5906535370417458 11.021196339580964 -9.174901588811473 0 0 0
1703 1 0.8271045836081896 9.465523344228256 -10.568047198673879 0 0 0
1785 1 0.42425693234003425 10.194925854720566 -12.91650917148224 0 0 0
1664 1 1.8439180536580615 11.267594782855525 -8.810123040676446 0 0 0
1529 1 1.0972609129445026 8.840695862556561 -8.234264848456792 0 0 0
1686 1 -1.2340607007353395 12.32795969719227 13.729492852098991 0 0 -1
1476 1 4.922834546543626 13.639899280580607 -8.409319832212269 0 -1 0
1649 1 2.637091585142006 13.650848822299324 -8.959013441810587 0 0 0
1680 1 3.2793400777572224 9.710975970091841 -10.027525488205558 0 0 0
1663 1 5.563401868259341 9.945587548200653 -9.604527864306501 0 0 0
1769 1 5.320527413973789 10.697470797883877 -11.942635061587069 0 0 0
1770 1 2.802178294968396 10.473122410351458 -12.34281381291569 0 0 0
1771 1 3.712236526029418 12.161825364635597 -10.387561474137645 0 0 0
1835 1 6.004200915880595 13.038873448267715 -12.422324310264841 0 0 0
1758 1 6.178248041635882 12.299568530167498 -10.042246090535768 0 0 0
1772 1 3.555498153043576 12.88707935874119 -12.834377783206566 0 0 0
1784 1 6.507451175497163 9.173420726924231 -13.5096403737725 0 0 0
1757 1 7.636587020970772 10.869362597444194 -11.50913239005409 0 0 0
1832 1 7.247927175117983 11.360282842176066 13.766968798004262 0 0 -1
1831 1 9.350756602422546 8.712727310820352 -10.565898006068291 0 0 0
1755 1 8.038669164149841 10.23696443742779 -9.006448860825685 0 0 0
1829 1 11.610898743327912 8.747772156112262 -10.216163700845785 0 0 0
1825 1 8.324383385911403 13.208687716388663 -11.81438568153196 0 0 0
1857 1 10.691688295133464 13.366658315763907 -11.458808740975092 0 0 0
1821 1 12.470665002345044 11.08950191892071 -10.493192281131616 0 0 0
1824 1 8.691964247795099 12.556498479305173 -9.622606920377041 0 0 0
1823 1 10.028266808888233 11.017656835475822 -11.139439265317755 0 0 0
1855 1 12.041135662295673 11.681454247386107 -12.788583954379867 0 0 0
1860 1 11.368810623985908 9.395150470610698 -12.527877843003012 0 0 0
1861 1 9.696140982802863 11.712220982560922 -13.250737486742993 0 0 0
1817 1 11.055986594968712 12.723214412201987 -9.107965467904826 0 0 0
1822 1 10.441081058008457 10.31442601340644 -8.652694090732503 0 0 0
1833 1 8.820618326935396 9.408375547422544 -12.911242705804849 0 0 0
1720 1 13.13161218318433 13.496999138045467 -10.795398761003675 0 -1 0
1851 1 13.434987234170357 12.901794438724103 -8.499748754679437 0 0 0
1854 1 13.907737923560902 9.569142700017633 -11.939159055069563 0 0 0
1853 1 14.105100342344869 8.890783937759839 -9.646976863846444 0 0 0
997 1 -9.957424622347524 -11.961556136548978 -7.898719041783698 0 0 0
951 1 -11.865915571176474 -12.82249284826078 -6.123120509901891 0 0 0
952 1 -13.365155399910321 -11.438644416678715 -4.629216818165894 0 0 0
996 1 -9.535110972037844 -12.745048703666368 -5.53916372585298 0 0 0
998 1 -11.13548509120469 -10.495923165408923 -6.401536060132987 0 0 0
1003 1 -13.58725783410689 -10.653249526671486 -6.991700866474184 0 0 0
981 1 -10.954062890032587 -11.285683205983023 -4.040561271822019 0 0 0
945 1 -9.216796320101684 -13.536932701595997 -3.2881921838539583 0 0 0
983 1 -12.811046876548865 -9.130651446768594 -5.049341686676838 0 0 0
719 1 -10.393836602074376 -8.939586754840056 -4.621105929916137 1 0 0
1000 1 -12.866483673017623 -8.354530298601157 -7.320000504920729 0 0 0
950 1 -11.59207756404528 -13.644440591228982 -3.6763130325750346 0 0 0
993 1 -10.547390954406819 -8.272034249617521 -7.032370705368063 0 0 0
992 1 -12.381977690190139 -9.805474567952912 -2.6469693836175203 0 0 0
991 1 -8.853196702009377 -10.370574127879364 -6.0193269539914205 0 0 0
1705 1 -14.328145451025359 -12.989764577412563 -6.6393915327591335 1 0 0
1113 1 -13.988635053203945 13.713953658700714 -4.343150755336033 0 0 0
990 1 -8.544745105977416 -11.171761548264007 -3.5689811518102648 0 0 0
1071 1 -6.878501041005996 -9.448911592339215 -7.804867939893448 0 0 0
1080 1 -7.454669678168939 -11.798257078911446 -7.4565430349050175 0 0 0
989 1 -7.032257151503165 -12.418084604551673 -5.053190088621154 0 0 0
1056 1 -4.018665664363381 -9.930955418818902 -5.007771915060914 0 0 0
1067 1 -4.7160128636333845 -12.265768923510695 -4.681967550063259 0 0 0
1068 1 -6.264893665283875 -10.712845929442548 -3.2605138190769285 0 0 0
1069 1 -5.152998246022676 -11.545511754622597 -7.091059897495716 0 0 0
1070 1 -6.473107958076504 -10.12284149363311 -5.545540977169026 0 0 0
1194 1 -4.352550215643644 -9.327163237951794 -7.511350301740186 0 0 0
1059 1 -7.896371481563512 -8.61868832884004 -4.104005464606683 0 0 0
1057 1 -5.402336075401054 -8.530180248207433 -3.5935599850933766 0 0 0
988 1 -6.799227023921298 -13.103172692880609 -2.7522218475536864 0 0 0
1370 1 -3.3011012369799797 -13.643957733581281 -6.243074074952368 0 1 0
1055 1 -3.704874377051599 -10.490562087518747 -2.647039000115633 0 0 0
1191 1 -1.1725383043047088 -12.864573075366 -7.96875193405216 0 0 0
1316 1 1.8019670794884206 -10.125249963935712 -7.923977148923086 0 0 0
1054 1 -2.240345196476298 -11.918378729791739 -4.220809142671056 0 0 0
1175 1 -0.20767067633909875 -11.008224708272927 -6.126162134493166 0 0 0
1176 1 -1.6877414596100575 -9.553123731604355 -4.529877971052681 0 0 0
1192 1 -2.5978009617858984 -11.18927397158658 -6.634668659075024 0 0 0
1173 1 1.410576063276423 -13.219647910211231 -5.127043742696374 0 0 0
1331 1 1.1196317346790998 -12.497425429711562 -7.467651347106115 0 0 0
1177 1 -1.9941928821093313 -8.924950307727368 -7.014496543533863 0 0 0
1155 1 0.7614593497982352 -9.392118145947464 -4.070918304186808 0 0 0
1317 1 0.38442090411553664 -8.679093999717228 -6.352413551707364 0 0 0